<?xml version="1.0"?>
<VTKFile type="UnstructuredGrid"  version="0.1"  >
<UnstructuredGrid>
<Piece  NumberOfPoints="4225" NumberOfCells="8192">
<Points>
<DataArray  type="Float64"  NumberOfComponents="3"  format="ascii">0 0 0  0.03125 0 0  0.0625 0 0  0.09375 0 0  0.125 0 0  0.15625 0 0  0.1875 0 0  0.21875 0 0  0.25 0 0  0.28125 0 0  0.3125 0 0  0.34375 0 0  0.375 0 0  0.40625 0 0  0.4375 0 0  0.46875 0 0  0.5 0 0  0.53125 0 0  0.5625 0 0  0.59375 0 0  0.625 0 0  0.65625 0 0  0.6875 0 0  0.71875 0 0  0.75 0 0  0.78125 0 0  0.8125 0 0  0.84375 0 0  0.875 0 0  0.90625 0 0  0.9375 0 0  0.96875 0 0  1 0 0  0 0.03125 0  0.03125 0.03125 0  0.0625 0.03125 0  0.09375 0.03125 0  0.125 0.03125 0  0.15625 0.03125 0  0.1875 0.03125 0  0.21875 0.03125 0  0.25 0.03125 0  0.28125 0.03125 0  0.3125 0.03125 0  0.34375 0.03125 0  0.375 0.03125 0  0.40625 0.03125 0  0.4375 0.03125 0  0.46875 0.03125 0  0.5 0.03125 0  0.53125 0.03125 0  0.5625 0.03125 0  0.59375 0.03125 0  0.625 0.03125 0  0.65625 0.03125 0  0.6875 0.03125 0  0.71875 0.03125 0  0.75 0.03125 0  0.78125 0.03125 0  0.8125 0.03125 0  0.84375 0.03125 0  0.875 0.03125 0  0.90625 0.03125 0  0.9375 0.03125 0  0.96875 0.03125 0  1 0.03125 0  0 0.0625 0  0.03125 0.0625 0  0.0625 0.0625 0  0.09375 0.0625 0  0.125 0.0625 0  0.15625 0.0625 0  0.1875 0.0625 0  0.21875 0.0625 0  0.25 0.0625 0  0.28125 0.0625 0  0.3125 0.0625 0  0.34375 0.0625 0  0.375 0.0625 0  0.40625 0.0625 0  0.4375 0.0625 0  0.46875 0.0625 0  0.5 0.0625 0  0.53125 0.0625 0  0.5625 0.0625 0  0.59375 0.0625 0  0.625 0.0625 0  0.65625 0.0625 0  0.6875 0.0625 0  0.71875 0.0625 0  0.75 0.0625 0  0.78125 0.0625 0  0.8125 0.0625 0  0.84375 0.0625 0  0.875 0.0625 0  0.90625 0.0625 0  0.9375 0.0625 0  0.96875 0.0625 0  1 0.0625 0  0 0.09375 0  0.03125 0.09375 0  0.0625 0.09375 0  0.09375 0.09375 0  0.125 0.09375 0  0.15625 0.09375 0  0.1875 0.09375 0  0.21875 0.09375 0  0.25 0.09375 0  0.28125 0.09375 0  0.3125 0.09375 0  0.34375 0.09375 0  0.375 0.09375 0  0.40625 0.09375 0  0.4375 0.09375 0  0.46875 0.09375 0  0.5 0.09375 0  0.53125 0.09375 0  0.5625 0.09375 0  0.59375 0.09375 0  0.625 0.09375 0  0.65625 0.09375 0  0.6875 0.09375 0  0.71875 0.09375 0  0.75 0.09375 0  0.78125 0.09375 0  0.8125 0.09375 0  0.84375 0.09375 0  0.875 0.09375 0  0.90625 0.09375 0  0.9375 0.09375 0  0.96875 0.09375 0  1 0.09375 0  0 0.125 0  0.03125 0.125 0  0.0625 0.125 0  0.09375 0.125 0  0.125 0.125 0  0.15625 0.125 0  0.1875 0.125 0  0.21875 0.125 0  0.25 0.125 0  0.28125 0.125 0  0.3125 0.125 0  0.34375 0.125 0  0.375 0.125 0  0.40625 0.125 0  0.4375 0.125 0  0.46875 0.125 0  0.5 0.125 0  0.53125 0.125 0  0.5625 0.125 0  0.59375 0.125 0  0.625 0.125 0  0.65625 0.125 0  0.6875 0.125 0  0.71875 0.125 0  0.75 0.125 0  0.78125 0.125 0  0.8125 0.125 0  0.84375 0.125 0  0.875 0.125 0  0.90625 0.125 0  0.9375 0.125 0  0.96875 0.125 0  1 0.125 0  0 0.15625 0  0.03125 0.15625 0  0.0625 0.15625 0  0.09375 0.15625 0  0.125 0.15625 0  0.15625 0.15625 0  0.1875 0.15625 0  0.21875 0.15625 0  0.25 0.15625 0  0.28125 0.15625 0  0.3125 0.15625 0  0.34375 0.15625 0  0.375 0.15625 0  0.40625 0.15625 0  0.4375 0.15625 0  0.46875 0.15625 0  0.5 0.15625 0  0.53125 0.15625 0  0.5625 0.15625 0  0.59375 0.15625 0  0.625 0.15625 0  0.65625 0.15625 0  0.6875 0.15625 0  0.71875 0.15625 0  0.75 0.15625 0  0.78125 0.15625 0  0.8125 0.15625 0  0.84375 0.15625 0  0.875 0.15625 0  0.90625 0.15625 0  0.9375 0.15625 0  0.96875 0.15625 0  1 0.15625 0  0 0.1875 0  0.03125 0.1875 0  0.0625 0.1875 0  0.09375 0.1875 0  0.125 0.1875 0  0.15625 0.1875 0  0.1875 0.1875 0  0.21875 0.1875 0  0.25 0.1875 0  0.28125 0.1875 0  0.3125 0.1875 0  0.34375 0.1875 0  0.375 0.1875 0  0.40625 0.1875 0  0.4375 0.1875 0  0.46875 0.1875 0  0.5 0.1875 0  0.53125 0.1875 0  0.5625 0.1875 0  0.59375 0.1875 0  0.625 0.1875 0  0.65625 0.1875 0  0.6875 0.1875 0  0.71875 0.1875 0  0.75 0.1875 0  0.78125 0.1875 0  0.8125 0.1875 0  0.84375 0.1875 0  0.875 0.1875 0  0.90625 0.1875 0  0.9375 0.1875 0  0.96875 0.1875 0  1 0.1875 0  0 0.21875 0  0.03125 0.21875 0  0.0625 0.21875 0  0.09375 0.21875 0  0.125 0.21875 0  0.15625 0.21875 0  0.1875 0.21875 0  0.21875 0.21875 0  0.25 0.21875 0  0.28125 0.21875 0  0.3125 0.21875 0  0.34375 0.21875 0  0.375 0.21875 0  0.40625 0.21875 0  0.4375 0.21875 0  0.46875 0.21875 0  0.5 0.21875 0  0.53125 0.21875 0  0.5625 0.21875 0  0.59375 0.21875 0  0.625 0.21875 0  0.65625 0.21875 0  0.6875 0.21875 0  0.71875 0.21875 0  0.75 0.21875 0  0.78125 0.21875 0  0.8125 0.21875 0  0.84375 0.21875 0  0.875 0.21875 0  0.90625 0.21875 0  0.9375 0.21875 0  0.96875 0.21875 0  1 0.21875 0  0 0.25 0  0.03125 0.25 0  0.0625 0.25 0  0.09375 0.25 0  0.125 0.25 0  0.15625 0.25 0  0.1875 0.25 0  0.21875 0.25 0  0.25 0.25 0  0.28125 0.25 0  0.3125 0.25 0  0.34375 0.25 0  0.375 0.25 0  0.40625 0.25 0  0.4375 0.25 0  0.46875 0.25 0  0.5 0.25 0  0.53125 0.25 0  0.5625 0.25 0  0.59375 0.25 0  0.625 0.25 0  0.65625 0.25 0  0.6875 0.25 0  0.71875 0.25 0  0.75 0.25 0  0.78125 0.25 0  0.8125 0.25 0  0.84375 0.25 0  0.875 0.25 0  0.90625 0.25 0  0.9375 0.25 0  0.96875 0.25 0  1 0.25 0  0 0.28125 0  0.03125 0.28125 0  0.0625 0.28125 0  0.09375 0.28125 0  0.125 0.28125 0  0.15625 0.28125 0  0.1875 0.28125 0  0.21875 0.28125 0  0.25 0.28125 0  0.28125 0.28125 0  0.3125 0.28125 0  0.34375 0.28125 0  0.375 0.28125 0  0.40625 0.28125 0  0.4375 0.28125 0  0.46875 0.28125 0  0.5 0.28125 0  0.53125 0.28125 0  0.5625 0.28125 0  0.59375 0.28125 0  0.625 0.28125 0  0.65625 0.28125 0  0.6875 0.28125 0  0.71875 0.28125 0  0.75 0.28125 0  0.78125 0.28125 0  0.8125 0.28125 0  0.84375 0.28125 0  0.875 0.28125 0  0.90625 0.28125 0  0.9375 0.28125 0  0.96875 0.28125 0  1 0.28125 0  0 0.3125 0  0.03125 0.3125 0  0.0625 0.3125 0  0.09375 0.3125 0  0.125 0.3125 0  0.15625 0.3125 0  0.1875 0.3125 0  0.21875 0.3125 0  0.25 0.3125 0  0.28125 0.3125 0  0.3125 0.3125 0  0.34375 0.3125 0  0.375 0.3125 0  0.40625 0.3125 0  0.4375 0.3125 0  0.46875 0.3125 0  0.5 0.3125 0  0.53125 0.3125 0  0.5625 0.3125 0  0.59375 0.3125 0  0.625 0.3125 0  0.65625 0.3125 0  0.6875 0.3125 0  0.71875 0.3125 0  0.75 0.3125 0  0.78125 0.3125 0  0.8125 0.3125 0  0.84375 0.3125 0  0.875 0.3125 0  0.90625 0.3125 0  0.9375 0.3125 0  0.96875 0.3125 0  1 0.3125 0  0 0.34375 0  0.03125 0.34375 0  0.0625 0.34375 0  0.09375 0.34375 0  0.125 0.34375 0  0.15625 0.34375 0  0.1875 0.34375 0  0.21875 0.34375 0  0.25 0.34375 0  0.28125 0.34375 0  0.3125 0.34375 0  0.34375 0.34375 0  0.375 0.34375 0  0.40625 0.34375 0  0.4375 0.34375 0  0.46875 0.34375 0  0.5 0.34375 0  0.53125 0.34375 0  0.5625 0.34375 0  0.59375 0.34375 0  0.625 0.34375 0  0.65625 0.34375 0  0.6875 0.34375 0  0.71875 0.34375 0  0.75 0.34375 0  0.78125 0.34375 0  0.8125 0.34375 0  0.84375 0.34375 0  0.875 0.34375 0  0.90625 0.34375 0  0.9375 0.34375 0  0.96875 0.34375 0  1 0.34375 0  0 0.375 0  0.03125 0.375 0  0.0625 0.375 0  0.09375 0.375 0  0.125 0.375 0  0.15625 0.375 0  0.1875 0.375 0  0.21875 0.375 0  0.25 0.375 0  0.28125 0.375 0  0.3125 0.375 0  0.34375 0.375 0  0.375 0.375 0  0.40625 0.375 0  0.4375 0.375 0  0.46875 0.375 0  0.5 0.375 0  0.53125 0.375 0  0.5625 0.375 0  0.59375 0.375 0  0.625 0.375 0  0.65625 0.375 0  0.6875 0.375 0  0.71875 0.375 0  0.75 0.375 0  0.78125 0.375 0  0.8125 0.375 0  0.84375 0.375 0  0.875 0.375 0  0.90625 0.375 0  0.9375 0.375 0  0.96875 0.375 0  1 0.375 0  0 0.40625 0  0.03125 0.40625 0  0.0625 0.40625 0  0.09375 0.40625 0  0.125 0.40625 0  0.15625 0.40625 0  0.1875 0.40625 0  0.21875 0.40625 0  0.25 0.40625 0  0.28125 0.40625 0  0.3125 0.40625 0  0.34375 0.40625 0  0.375 0.40625 0  0.40625 0.40625 0  0.4375 0.40625 0  0.46875 0.40625 0  0.5 0.40625 0  0.53125 0.40625 0  0.5625 0.40625 0  0.59375 0.40625 0  0.625 0.40625 0  0.65625 0.40625 0  0.6875 0.40625 0  0.71875 0.40625 0  0.75 0.40625 0  0.78125 0.40625 0  0.8125 0.40625 0  0.84375 0.40625 0  0.875 0.40625 0  0.90625 0.40625 0  0.9375 0.40625 0  0.96875 0.40625 0  1 0.40625 0  0 0.4375 0  0.03125 0.4375 0  0.0625 0.4375 0  0.09375 0.4375 0  0.125 0.4375 0  0.15625 0.4375 0  0.1875 0.4375 0  0.21875 0.4375 0  0.25 0.4375 0  0.28125 0.4375 0  0.3125 0.4375 0  0.34375 0.4375 0  0.375 0.4375 0  0.40625 0.4375 0  0.4375 0.4375 0  0.46875 0.4375 0  0.5 0.4375 0  0.53125 0.4375 0  0.5625 0.4375 0  0.59375 0.4375 0  0.625 0.4375 0  0.65625 0.4375 0  0.6875 0.4375 0  0.71875 0.4375 0  0.75 0.4375 0  0.78125 0.4375 0  0.8125 0.4375 0  0.84375 0.4375 0  0.875 0.4375 0  0.90625 0.4375 0  0.9375 0.4375 0  0.96875 0.4375 0  1 0.4375 0  0 0.46875 0  0.03125 0.46875 0  0.0625 0.46875 0  0.09375 0.46875 0  0.125 0.46875 0  0.15625 0.46875 0  0.1875 0.46875 0  0.21875 0.46875 0  0.25 0.46875 0  0.28125 0.46875 0  0.3125 0.46875 0  0.34375 0.46875 0  0.375 0.46875 0  0.40625 0.46875 0  0.4375 0.46875 0  0.46875 0.46875 0  0.5 0.46875 0  0.53125 0.46875 0  0.5625 0.46875 0  0.59375 0.46875 0  0.625 0.46875 0  0.65625 0.46875 0  0.6875 0.46875 0  0.71875 0.46875 0  0.75 0.46875 0  0.78125 0.46875 0  0.8125 0.46875 0  0.84375 0.46875 0  0.875 0.46875 0  0.90625 0.46875 0  0.9375 0.46875 0  0.96875 0.46875 0  1 0.46875 0  0 0.5 0  0.03125 0.5 0  0.0625 0.5 0  0.09375 0.5 0  0.125 0.5 0  0.15625 0.5 0  0.1875 0.5 0  0.21875 0.5 0  0.25 0.5 0  0.28125 0.5 0  0.3125 0.5 0  0.34375 0.5 0  0.375 0.5 0  0.40625 0.5 0  0.4375 0.5 0  0.46875 0.5 0  0.5 0.5 0  0.53125 0.5 0  0.5625 0.5 0  0.59375 0.5 0  0.625 0.5 0  0.65625 0.5 0  0.6875 0.5 0  0.71875 0.5 0  0.75 0.5 0  0.78125 0.5 0  0.8125 0.5 0  0.84375 0.5 0  0.875 0.5 0  0.90625 0.5 0  0.9375 0.5 0  0.96875 0.5 0  1 0.5 0  0 0.53125 0  0.03125 0.53125 0  0.0625 0.53125 0  0.09375 0.53125 0  0.125 0.53125 0  0.15625 0.53125 0  0.1875 0.53125 0  0.21875 0.53125 0  0.25 0.53125 0  0.28125 0.53125 0  0.3125 0.53125 0  0.34375 0.53125 0  0.375 0.53125 0  0.40625 0.53125 0  0.4375 0.53125 0  0.46875 0.53125 0  0.5 0.53125 0  0.53125 0.53125 0  0.5625 0.53125 0  0.59375 0.53125 0  0.625 0.53125 0  0.65625 0.53125 0  0.6875 0.53125 0  0.71875 0.53125 0  0.75 0.53125 0  0.78125 
[...]
<PointData  Scalars="primal solution"> 
<DataArray  type="Float64"  Name="primal solution"  format="ascii">0.0000000000000000e+00  0.0000000000000000e+00  0.0000000000000000e+00  0.0000000000000000e+00  0.0000000000000000e+00  0.0000000000000000e+00  0.0000000000000000e+00  0.0000000000000000e+00  0.0000000000000000e+00  0.0000000000000000e+00  0.0000000000000000e+00  0.0000000000000000e+00  0.0000000000000000e+00  0.0000000000000000e+00  0.0000000000000000e+00  0.0000000000000000e+00  0.0000000000000000e+00  0.0000000000000000e+00  0.0000000000000000e+00  0.0000000000000000e+00  0.0000000000000000e+00  0.0000000000000000e+00  0.0000000000000000e+00  0.0000000000000000e+00  0.0000000000000000e+00  0.0000000000000000e+00  0.0000000000000000e+00  0.0000000000000000e+00  0.0000000000000000e+00  0.0000000000000000e+00  0.0000000000000000e+00  0.0000000000000000e+00  0.0000000000000000e+00  0.0000000000000000e+00  9.4677931347743034e-04  1.8935597305936478e-03  2.8403423631707773e-03  3.7871283392493117e-03  4.7339188108019804e-03  5.6807149609014581e-03  6.6275180100303912e-03  7.5743292210898507e-03  8.5211499024658455e-03  9.4679814082244042e-03  1.0414825134079398e-02  1.1361682507143723e-02  1.2308554966521400e-02  1.3255443930342546e-02  1.4202350742581145e-02  1.5149276589406985e-02  1.6096222369001642e-02  1.7043188489077009e-02  1.7990174549734204e-02  1.8937178839926409e-02  1.9884197521865880e-02  2.0831223274454486e-02  2.1778242959157382e-02  2.2725233429409589e-02  2.3672153595406434e-02  2.4618928338533033e-02  2.5565412208796101e-02  2.6511268260478071e-02  2.7454555148635706e-02  2.8355214718611934e-02  2.8148183881589718e-02  0.0000000000000000e+00  0.0000000000000000e+00  1.8319234656758278e-03  3.6638491304277271e-03  5.4957792098437397e-03  7.3277159522633813e-03  9.1596616544261551e-03  1.0991618676112886e-02  1.2823589453201773e-02  1.4655576508314340e-02  1.6487582457861194e-02  1.8319610013762720e-02  2.0151661977335217e-02  2.1983741221674791e-02  2.3815850657141747e-02  2.5647993171930873e-02  2.7480171535686593e-02  2.9312388247814080e-02  3.1144645302049224e-02  3.2976943822345457e-02  3.4809283497441133e-02  3.6641661693695725e-02  3.8474072040790043e-02  4.0306502128490809e-02  4.2138929654027782e-02  4.3971315766063793e-02  4.5803593120928313e-02  4.7635643483379987e-02  4.9467252286594425e-02  5.1297954190016981e-02  5.3124594402611254e-02  5.4871845488718755e-02  5.4485427437874857e-02  0.0000000000000000e+00  0.0000000000000000e+00  2.6560126345752588e-03  5.3120285471185448e-03  7.9680510407053057e-03  1.0624083468274497e-02  1.3280129256620135e-02  1.5936191929073799e-02  1.8592275126117167e-02  2.1248382622834586e-02  2.3904518341632618e-02  2.6560686357950010e-02  2.9216890895660347e-02  3.1873136307377911e-02  3.4529427032678153e-02  3.7185767523968190e-02  3.9842162124792607e-02  4.2498614877769673e-02  4.5155129227518950e-02  4.7811707565160108e-02  5.0468350530592884e-02  5.3125055938703383e-02  5.5781817111522969e-02  5.8438620254542092e-02  6.1095440266260827e-02  6.3752233937425726e-02  6.6408928760515878e-02  6.9065404374042072e-02  7.1721460099408954e-02  7.4376674751326893e-02  7.7027079905951659e-02  7.9564849154400014e-02  7.9013239686152689e-02  0.0000000000000000e+00  0.0000000000000000e+00  3.4190628534204780e-03  6.8381300385505564e-03  1.0257205921146394e-02  1.3676294934688110e-02  1.7095401613248289e-02  2.0514530622962927e-02  2.3933686791271176e-02  2.7352875132721128e-02  3.0772100869600194e-02  3.4191369444874727e-02  3.7610686523812713e-02  4.1030057979068196e-02  4.4449489851699289e-02  4.7868988277232773e-02  5.1288559360951405e-02  5.4708208979254547e-02  5.8127942472966140e-02  6.1547764181866554e-02  6.4967676744450073e-02  6.8387680048312069e-02  7.1807769657909110e-02  7.5227934459124457e-02  7.8648153137088325e-02  8.2068388954355059e-02  8.5488582195839991e-02  8.8908639829305081e-02  9.2328420526402111e-02  9.5747604949496787e-02  9.9161494263018929e-02  1.0243192499312986e-01  1.0172698852999069e-01  0.0000000000000000e+00  0.0000000000000000e+00  4.1210735732901778e-03  8.2421524979398933e-03  1.2363242168654885e-02  1.6484348066515782e-02  2.0605475801300538e-02  2.4726631152561997e-02  2.8847820108677032e-02  3.2969048902717651e-02  3.7090324043466814e-02  4.1211652339153852e-02  4.5333040910431728e-02  4.9454497187639335e-02  5.3576028885311176e-02  5.7697643943968063e-02  6.1819350425089764e-02  6.5941156339339904e-02  7.0063069379918533e-02  7.4185096521492050e-02  7.8307243429553294e-02  8.2429513604660415e-02  8.6551907161724229e-02  9.0674419122250022e-02  9.4797037096665482e-02  9.8919738308484231e-02  1.0304248619611969e-01  1.0716522755620121e-01  1.1128788959564677e-01  1.1541024330623349e-01  1.1952685093960880e-01  1.2347142302296840e-01  1.2262491126675286e-01  0.0000000000000000e+00  0.0000000000000000e+00  4.7620437905236800e-03  9.5240939086720430e-03  1.4286156735024338e-02  1.9048238755873380e-02  2.3810346615528864e-02  2.8572487167770114e-02  3.3334667525834312e-02  3.8096895110003200e-02  4.2859177691391609e-02  4.7621523429904111e-02  5.2383940903449923e-02  5.7146439124315447e-02  6.1909027536984559e-02  6.6671715989545383e-02  7.1434514667983479e-02  7.6197433978996559e-02  8.0960484362415416e-02  8.5723676009059127e-02  9.0487018454698545e-02  9.5250520018043391e-02  1.0001418705585874e-01  1.0477802303402067e-01  1.0954202748635540e-01  1.1430619510768675e-01  1.1907051560336153e-01  1.2383497556978049e-01  1.2859956086598714e-01  1.3336410135933890e-01  1.3812242148193937e-01  1.4268243571234093e-01  1.4170627986106668e-01  0.0000000000000000e+00  0.0000000000000000e+00  5.3419725304914897e-03  1.0683952311894762e-02  1.6025946657872211e-02  2.1367963007577373e-02  2.6710008988323895e-02  3.2052092478014188e-02  3.7394221666987422e-02  4.2736405118695732e-02  4.8078651828270515e-02  5.3420971277570423e-02  5.8763373484683280e-02  6.4105869045050667e-02  6.9448469160374462e-02  7.4791185650235889e-02  8.0134030939959494e-02  8.5477018016835923e-02  9.0820160345776363e-02  9.6163471735669068e-02  1.0150696615092648e-01  1.0685065747246830e-01  1.1219455923536575e-01  1.1753868441883053e-01  1.2288304545940863e-01  1.2822765483395157e-01  1.3357252685854837e-01  1.3891768170839061e-01  1.4426314862011555e-01  1.4960878790919793e-01  1.5494771560419851e-01  1.6006445363895969e-01  1.5897074572712558e-01  0.0000000000000000e+00  0.0000000000000000e+00  5.8608588711409823e-03  1.1721725853729780e-02  1.7582609131764550e-02  2.3443517034570531e-02  2.9304458109995227e-02  3.5165441198143951e-02  4.1026475505666078e-02  4.6887570680444322e-02  5.2748736886327773e-02  5.8609984877277053e-02  6.4471326069956897e-02  7.0332772613427338e-02  7.6194337454181055e-02  8.2056034394438149e-02  8.7917878141506173e-02  9.3779884346479728e-02  9.9642069632210201e-02  1.0550445161444483e-01  1.1136704892828199e-01  1.1722988128796831e-01  1.2309296963702676e-01  1.2895633649616722e-01  1.3482000669998920e-01  1.4068400884290033e-01  1.4654837793295905e-01  1.5241315984230910e-01  1.5827841319387098e-01  1.6414400912782223e-01  1.7000240687224280e-01  1.7561717535028532e-01  1.7441812099992465e-01  0.0000000000000000e+00  0.0000000000000000e+00  6.3187019531578299e-03  1.2637412805777959e-02  1.8956141539442223e-02  2.5274897300468155e-02  3.1593689483503662e-02  3.7912527816553104e-02  4.4231422447842700e-02  5.0550384034874843e-02  5.6869423835951505e-02  6.3188553804374104e-02  6.9507786685473819e-02  7.5827136116626948e-02  8.2146616730540259e-02  8.8466244262479343e-02  9.4786035662992277e-02  1.0110600921943166e-01  1.0742618469285492e-01  1.1374658348271791e-01  1.2006722884180547e-01  1.2638814618048136e-01  1.3270936352595775e-01  1.3903091224293304e-01  1.4535282818015499e-01  1.5167515348254879e-01  1.5799793938524601e-01  1.6432125022421787e-01  1.7064516334823704e-01  1.7696954905433743e-01  1.8328627498747843e-01  1.8934041280977618e-01  1.8804829511506016e-01  0.0000000000000000e+00  0.0000000000000000e+00  6.7155009897195191e-03  1.3431011584858592e-02  2.0146541482027078e-02  2.6862100560996856e-02  3.3577698978241519e-02  4.0293347262842887e-02  4.7009056415584637e-02  5.3724838012091533e-02  6.0440704310936656e-02  6.7156668367749445e-02  7.3872744156543865e-02  8.0588946699804459e-02  8.7305292209403959e-02  9.4021798241320537e-02  1.0073848386860412e-01  1.0745536987945384e-01  1.1417247901114340e-01  1.2088983623663921e-01  1.2760746913015428e-01  1.3432540835191234e-01  1.4104368831245448e-01  1.4776234810373839e-01  1.5448143281678811e-01  1.6120099539741517e-01  1.6792109920375928e-01  1.7464182126217914e-01  1.8136325026844705e-01  1.8808524966481599e-01  1.9479916832329972e-01  2.0123404338769543e-01  1.9986119865204627e-01  0.0000000000000000e+00  0.0000000000000000e+00  7.0512552759982531e-03  1.4102520772280580e-02  2.1153806808611429e-02  2.8205123904776967e-02  3.5256482883272364e-02  4.2307894975270030e-02  4.9359371931086644e-02  5.6410926136489889e-02  6.3462570736366644e-02  7.0514319767534916e-02  7.7566188302859079e-02  8.4618192609376822e-02  9.1670350323951419e-02  9.8722680651142647e-02  1.0577520458973322e-01  1.1282794519689790e-01  1.1988092790271748e-01  1.2693418089305317e-01  1.3398773558621291e-01  1.4104162723878044e-01  1.4809589572848458e-01  1.5515058657606137e-01  1.6220575228056514e-01  1.6926145404639695e-01  1.7631776395976900e-01  1.8337476747330056e-01  1.9043255982692103e-01  1.9749099523395564e-01  2.0454098065362028e-01  2.1129798434943955e-01  2.0985678596258894e-01  0.0000000000000000e+00  0.0000000000000000e+00  7.3259641981614412e-03  1.4651939132123357e-02  2.1977935644398615e-02  2.9303964792241902e-02  3.6630037958353109e-02  4.3956166965695202e-02  5.1282364197999968e-02  5.8608642727730850e-02  6.5935016453543840e-02  7.3261500249665143e-02  8.0588110130115631e-02  8.7914863431412762e-02  9.5241779018330683e-02  1.0256887751859049e-01  1.0989618159410114e-01  1.1722371625871832e-01  1.2455150925559390e-01  1.3187959151119696e-01  1.3920799768805572e-01  1.4653676686400541e-01  1.5386594337152559e-01  1.6119557783492980e-01  1.6852572844242902e-01  1.7585646247877493e-01  1.8318785811116611e-01  1.9052000621707757e-01  1.9785300560369959e-01  2.0518670110574644e-01  2.1251163673812012e-01  2.1953217863843938e-01  2.1803502612173253e-01  0.0000000000000000e+00  0.0000000000000000e+00  7.5396272415927312e-03  1.5079265627953933e-02  2.2618926416484466e-02  3.0158621091383331e-02  3.7698361480933272e-02  4.5238159879601579e-02  5.2778029176826349e-02  6.0317982994605557e-02  6.7858035836350639e-02  7.5398203249921095e-02  8.2938502008359782e-02  9.0478950312630799e-02  9.8019568021672318e-02  1.0556037691635953e-01  1.1310140100558869e-01  1.2064266688466679e-01  1.2818420415853837e-01  1.3572604594500848e-01  1.4326822947579737e-01  1.5081079681544490e-01  1.5835379571877861e-01  1.6589728064513179e-01  1.7344131393908699e-01  1.8098596716944440e-01  1.8853132258314173e-01  1.9607747443200635e-01  2.0362452333496533e-01  2.1117230591979716e-01  2.1871108330358752e-01  2.2593658661746938e-01  2.2439589791245063e-01  0.0000000000000000e+00  0.0000000000000000e+00  7.6922439980607622e-03  1.5384499437416464e-02  2.3076777876387580e-02  3.0769091109042961e-02  3.8461451287379538e-02  4.6153871048846620e-02  5.3846363651304768e-02  6.1538943117795758e-02  6.9231624393888649e-02  7.6924423520875321e-02  8.4617357828742149e-02  9.2310446153667264e-02  1.0000370908580927e-01  1.0769716925438143e-01  1.1539085165843867e-01  1.2308478405340659e-01  1.3077899740503457e-01  1.3847352642393371e-01  1.4616841019474794e-01  1.5386369291361768e-01  1.6155942474486887e-01  1.6925566280129986e-01  1.7695247224009450e-01  1.8464992744608641e-01  1.9234811324115261e-01  2.0004712586660534e-01  2.0774706677922214e-01  2.1544776633793283e-01  2.2313928334866551e-01  2.3051118112285032e-01  2.2893938692059140e-01  0.0000000000000000e+00  0.0000000000000000e+00  7.7838141715856806e-03  1.5567639964178417e-02  2.3351489118514403e-02  3.1135373616587487e-02  3.8919305806844377e-02  4.6703298535052999e-02  5.4487365283070160e-02  6.2271520318042367e-02  7.0055778854988898e-02  7.7840157236252996e-02  8.5624673131984796e-02  9.3409345766658256e-02  1.0119419617762947e-01  1.0897924751291478e-01  1.1676452537666172e-01  1.2455005823211486e-01  1.3233587787306572e-01  1.4012201997550267e-01  1.4790852474095592e-01  1.5569543764111243e-01  1.6348281026863926e-01  1.7127070129051086e-01  1.7905917748608838e-01  1.8684831483151310e-01  1.9463819956140527e-01  2.0242892895195302e-01  2.1022060479638632e-01  2.1801305355068573e-01  2.2579621255796534e-01  2.3325594446617642e-01  2.3166548381499913e-01  0.0000000000000000e+00  0.0000000000000000e+00  7.8143375827917499e-03  1.5628686846797375e-02  2.3443059593872585e-02  3.1257467868990731e-02  3.9071924086456475e-02  4.6886441161904227e-02  5.4701032652352738e-02  6.2515712906903526e-02  7.0330497231093164e-02  7.8145402068455633e-02  8.5960445203536517e-02  9.3775645991442183e-02  1.0159102562000653e-01  1.0940660741180562e-01  1.1722241717449337e-01  1.2503848360916309e-01  1.3285483878746043e-01  1.4067151870864489e-01  1.4848856394719762e-01  1.5630602039915106e-01  1.6412394013007087e-01  1.7194238231834266e-01  1.7976141427290890e-01  1.8758111248394463e-01  1.9540156363534075e-01  2.0322286532273851e-01  2.1104511942537393e-01  2.1886815107659219e-01  2.2668185712103500e-01  2.3417086665783907e-01  2.3257418334501589e-01  0.0000000000000000e+00  0.0000000000000000e+00  7.7838141715856823e-03  1.5567639964178415e-02  2.3351489118514392e-02  3.1135373616587476e-02  3.8919305806844336e-02  4.6703298535052992e-02  5.4487365283070188e-02  6.2271520318042381e-02  7.0055778854988912e-02  7.7840157236253010e-02  8.5624673131984866e-02  9.3409345766658269e-02  1.0119419617762948e-01  1.0897924751291482e-01  1.1676452537666177e-01  1.2455005823211496e-01  1.3233587787306592e-01  1.4012201997550275e-01  1.4790852474095598e-01  1.5569543764111246e-01  1.6348281026863928e-01  1.7127070129051089e-01  1.7905917748608821e-01  1.8684831483151304e-01  1.9463819956140532e-01  2.0242892895195302e-01  2.1022060479638635e-01  2.1801305355068579e-01  2.2579621255796556e-01  2.3325594446617648e-01  2.3166548381499916e-01  0.0000000000000000e+00  0.0000000000000000e+00  7.6922439980607587e-03  1.5384499437416453e-02  2.3076777876387563e-02  3.0769091109042947e-02  3.8461451287379524e-02  4.6153871048846613e-02  5.3846363651304761e-02  6.1538943117795751e-02  6.9231624393888649e-02  7.6924423520875279e-02  8.4617357828742149e-02  9.2310446153667264e-02  1.0000370908580931e-01  1.0769716925438151e-01  1.1539085165843879e-01  1.2308478405340674e-01  1.3077899740503474e-01  1.3847352642393387e-01  1.4616841019474805e-01  1.5386369291361771e-01  1.6155942474486890e-01  1.6925566280129989e-01  1.7695247224009439e-01  1.8464992744608630e-01  1.9234811324115261e-01  2.0004712586660534e-01  2.0774706677922217e-01  2.1544776633793283e-01  2.2313928334866562e-01  2.3051118112285038e-01  2.2893938692059138e-01  0.0000000000000000e+00  0.0000000000000000e+00  7.5396272415927225e-03  1.5079265627953919e-02  2.2618926416484445e-02  3.0158621091383325e-02  3.7698361480933230e-02  4.5238159879601565e-02  5.2778029176826328e-02  6.0317982994605564e-02  6.7858035836350653e-02  7.5398203249921053e-02  8.2938502008359699e-02  9.0478950312630840e-02  9.8019568021672415e-02  1.0556037691635962e-01  1.1310140100558883e-01  1.2064266688466696e-01  1.2818420415853854e-01  1.3572604594500864e-01  1.4326822947579745e-01  1.5081079681544499e-01  1.5835379571877856e-01  1.6589728064513173e-01  1.7344131393908699e-01  1.8098596716944429e-01  1.8853132258314173e-01  1.9607747443200635e-01  2.0362452333496536e-01  2.1117230591979733e-01  2.1871108330358763e-01  2.2593658661746935e-01  2.2439589791245063e-01  0.0000000000000000e+00  0.0000000000000000e+00  7.3259641981614377e-03  1.4651939132123353e-02  2.1977935644398598e-02  2.9303964792241882e-02  3.6630037958353096e-02  4.3956166965695175e-02  5.1282364197999961e-02  5.8608642727730857e-02  6.5935016453543840e-02  7.3261500249665101e-02  8.0588110130115617e-02  8.7914863431412818e-02  9.5241779018330822e-02  1.0256887751859063e-01  1.0989618159410131e-01  1.1722371625871855e-01  1.2455150925559411e-01  1.3187959151119721e-01  1.3920799768805589e-01  1.4653676686400555e-01  1.5386594337152557e-01  1.6119557783492966e-01  1.6852572844242900e-01  1.7585646247877479e-01  1.8318785811116603e-01  1.9052000621707763e-01  1.9785300560369973e-01  2.0518670110574655e-01  2.1251163673812018e-01  2.1953217863843932e-01  2.1803502612173256e-01  0.0000000000000000e+00  0.0000000000000000e+00  7.0512552759982496e-03  1.4102520772280570e-02  2.1153806808611411e-02  2.8205123904776950e-02  3.5256482883272350e-02  4.2307894975270023e-02  4.9359371931086672e-02  5.6410926136489903e-02  6.3462570736366658e-02  7.0514319767534930e-02  7.7566188302859065e-02  8.4618192609376905e-02  9.1670350323951516e-02  9.8722680651142800e-02  1.0577520458973341e-01  1.1282794519689812e-01  1.1988092790271772e-01  1.2693418089305344e-01  1.3398773558621313e-01  1.4104162723878066e-01  1.4809589572848467e-01  1.5515058657606140e-01  1.6220575228056514e-01  1.6926145404639684e-01  1.7631776395976895e-01  1.8337476747330064e-01  1.9043255982692125e-01  1.9749099523395575e-01  2.0454098065362036e-01  2.1129798434943958e-01  2.0985678596258897e-01  0.0000000000000000e+00  0.0000000000000000e+00  6.7155009897195122e-03  1.3431011584858578e-02  2.0146541482027061e-02  2.6862100560996846e-02  3.3577698978241505e-02  4.0293347262842859e-02  4.7009056415584630e-02  5.3724838012091519e-02  6.0440704310936684e-02  6.7156668367749514e-02  7.3872744156543962e-02  8.0588946699804598e-02  8.7305292209404139e-02  9.4021798241320717e-02  1.0073848386860432e-01  1.0745536987945412e-01  1.1417247901114368e-01  1.2088983623663949e-01  1.2760746913015455e-01  1.3432540835191259e-01  1.4104368831245470e-01  1.4776234810373853e-01  1.5448143281678817e-01  1.6120099539741503e-01  1.6792109920375922e-01  1.7464182126217917e-01  1.8136325026844710e-01  1.8808524966481602e-01  1.9479916832329974e-01  2.0123404338769549e-01  1.9986119865204632e-01  0.0000000000000000e+00  0.0000000000000000e+00  6.3187019531578213e-03  1.2637412805777943e-02  1.8956141539442209e-02  2.5274897300468134e-02  3.1593689483503641e-02  3.7912527816553090e-02  4.4231422447842686e-02  5.0550384034874857e-02  5.6869423835951560e-02  6.3188553804374159e-02  6.9507786685473916e-02  7.5827136116627100e-02  8.2146616730540425e-02  8.8466244262479524e-02  9.4786035662992471e-02  1.0110600921943191e-01  1.0742618469285517e-01  1.1374658348271817e-01  1.2006722884180571e-01  1.2638814618048161e-01  1.3270936352595800e-01  1.3903091224293318e-01  1.4535282818015510e-01  1.5167515348254873e-01  1.5799793938524592e-01  1.6432125022421784e-01  1.7064516334823704e-01  1.7696954905433745e-01  1.8328627498747843e-01  1.8934041280977623e-01  1.8804829511506022e-01  0.0000000000000000e+00  0.0000000000000000e+00  5.8608588711409780e-03  1.1721725853729771e-02  1.7582609131764536e-02  2.3443517034570510e-02  2.9304458109995206e-02  3.5165441198143937e-02  4.1026475505666078e-02  4.6887570680444357e-02  5.2748736886327814e-02  5.8609984877277053e-02  6.4471326069956952e-02  7.0332772613427477e-02  7.6194337454181263e-02  8.2056034394438399e-02  8.7917878141506423e-02  9.3779884346479991e-02  9.9642069632210464e-02  1.0550445161444508e-01  1.1136704892828231e-01  1.1722988128796856e-01  1.2309296963702701e-01  1.2895633649616739e-01  1.3482000669998928e-01  1.4068400884290039e-01  1.4654837793295908e-01  1.5241315984230919e-01  1.5827841319387109e-01  1.6414400912782232e-01  1.7000240687224286e-01  1.7561717535028532e-01  1.7441812099992468e-01  0.0000000000000000e+00  0.0000000000000000e+00  5.3419725304914845e-03  1.0683952311894753e-02  1.6025946657872200e-