<?xml version="1.0"?>
<VTKFile type="UnstructuredGrid"  version="0.1"  >
<UnstructuredGrid>
<Piece  NumberOfPoints="4225" NumberOfCells="8192">
<Points>
<DataArray  type="Float64"  NumberOfComponents="3"  format="ascii">0 0 0  0.03125 0 0  0.0625 0 0  0.09375 0 0  0.125 0 0  0.15625 0 0  0.1875 0 0  0.21875 0 0  0.25 0 0  0.28125 0 0  0.3125 0 0  0.34375 0 0  0.375 0 0  0.40625 0 0  0.4375 0 0  0.46875 0 0  0.5 0 0  0.53125 0 0  0.5625 0 0  0.59375 0 0  0.625 0 0  0.65625 0 0  0.6875 0 0  0.71875 0 0  0.75 0 0  0.78125 0 0  0.8125 0 0  0.84375 0 0  0.875 0 0  0.90625 0 0  0.9375 0 0  0.96875 0 0  1 0 0  0 0.03125 0  0.03125 0.03125 0  0.0625 0.03125 0  0.09375 0.03125 0  0.125 0.03125 0  0.15625 0.03125 0  0.1875 0.03125 0  0.21875 0.03125 0  0.25 0.03125 0  0.28125 0.03125 0  0.3125 0.03125 0  0.34375 0.03125 0  0.375 0.03125 0  0.40625 0.03125 0  0.4375 0.03125 0  0.46875 0.03125 0  0.5 0.03125 0  0.53125 0.03125 0  0.5625 0.03125 0  0.59375 0.03125 0  0.625 0.03125 0  0.65625 0.03125 0  0.6875 0.03125 0  0.71875 0.03125 0  0.75 0.03125 0  0.78125 0.03125 0  0.8125 0.03125 0  0.84375 0.03125 0  0.875 0.03125 0  0.90625 0.03125 0  0.9375 0.03125 0  0.96875 0.03125 0  1 0.03125 0  0 0.0625 0  0.03125 0.0625 0  0.0625 0.0625 0  0.09375 0.0625 0  0.125 0.0625 0  0.15625 0.0625 0  0.1875 0.0625 0  0.21875 0.0625 0  0.25 0.0625 0  0.28125 0.0625 0  0.3125 0.0625 0  0.34375 0.0625 0  0.375 0.0625 0  0.40625 0.0625 0  0.4375 0.0625 0  0.46875 0.0625 0  0.5 0.0625 0  0.53125 0.0625 0  0.5625 0.0625 0  0.59375 0.0625 0  0.625 0.0625 0  0.65625 0.0625 0  0.6875 0.0625 0  0.71875 0.0625 0  0.75 0.0625 0  0.78125 0.0625 0  0.8125 0.0625 0  0.84375 0.0625 0  0.875 0.0625 0  0.90625 0.0625 0  0.9375 0.0625 0  0.96875 0.0625 0  1 0.0625 0  0 0.09375 0  0.03125 0.09375 0  0.0625 0.09375 0  0.09375 0.09375 0  0.125 0.09375 0  0.15625 0.09375 0  0.1875 0.09375 0  0.21875 0.09375 0  0.25 0.09375 0  0.28125 0.09375 0  0.3125 0.09375 0  0.34375 0.09375 0  0.375 0.09375 0  0.40625 0.09375 0  0.4375 0.09375 0  0.46875 0.09375 0  0.5 0.09375 0  0.53125 0.09375 0  0.5625 0.09375 0  0.59375 0.09375 0  0.625 0.09375 0  0.65625 0.09375 0  0.6875 0.09375 0  0.71875 0.09375 0  0.75 0.09375 0  0.78125 0.09375 0  0.8125 0.09375 0  0.84375 0.09375 0  0.875 0.09375 0  0.90625 0.09375 0  0.9375 0.09375 0  0.96875 0.09375 0  1 0.09375 0  0 0.125 0  0.03125 0.125 0  0.0625 0.125 0  0.09375 0.125 0  0.125 0.125 0  0.15625 0.125 0  0.1875 0.125 0  0.21875 0.125 0  0.25 0.125 0  0.28125 0.125 0  0.3125 0.125 0  0.34375 0.125 0  0.375 0.125 0  0.40625 0.125 0  0.4375 0.125 0  0.46875 0.125 0  0.5 0.125 0  0.53125 0.125 0  0.5625 0.125 0  0.59375 0.125 0  0.625 0.125 0  0.65625 0.125 0  0.6875 0.125 0  0.71875 0.125 0  0.75 0.125 0  0.78125 0.125 0  0.8125 0.125 0  0.84375 0.125 0  0.875 0.125 0  0.90625 0.125 0  0.9375 0.125 0  0.96875 0.125 0  1 0.125 0  0 0.15625 0  0.03125 0.15625 0  0.0625 0.15625 0  0.09375 0.15625 0  0.125 0.15625 0  0.15625 0.15625 0  0.1875 0.15625 0  0.21875 0.15625 0  0.25 0.15625 0  0.28125 0.15625 0  0.3125 0.15625 0  0.34375 0.15625 0  0.375 0.15625 0  0.40625 0.15625 0  0.4375 0.15625 0  0.46875 0.15625 0  0.5 0.15625 0  0.53125 0.15625 0  0.5625 0.15625 0  0.59375 0.15625 0  0.625 0.15625 0  0.65625 0.15625 0  0.6875 0.15625 0  0.71875 0.15625 0  0.75 0.15625 0  0.78125 0.15625 0  0.8125 0.15625 0  0.84375 0.15625 0  0.875 0.15625 0  0.90625 0.15625 0  0.9375 0.15625 0  0.96875 0.15625 0  1 0.15625 0  0 0.1875 0  0.03125 0.1875 0  0.0625 0.1875 0  0.09375 0.1875 0  0.125 0.1875 0  0.15625 0.1875 0  0.1875 0.1875 0  0.21875 0.1875 0  0.25 0.1875 0  0.28125 0.1875 0  0.3125 0.1875 0  0.34375 0.1875 0  0.375 0.1875 0  0.40625 0.1875 0  0.4375 0.1875 0  0.46875 0.1875 0  0.5 0.1875 0  0.53125 0.1875 0  0.5625 0.1875 0  0.59375 0.1875 0  0.625 0.1875 0  0.65625 0.1875 0  0.6875 0.1875 0  0.71875 0.1875 0  0.75 0.1875 0  0.78125 0.1875 0  0.8125 0.1875 0  0.84375 0.1875 0  0.875 0.1875 0  0.90625 0.1875 0  0.9375 0.1875 0  0.96875 0.1875 0  1 0.1875 0  0 0.21875 0  0.03125 0.21875 0  0.0625 0.21875 0  0.09375 0.21875 0  0.125 0.21875 0  0.15625 0.21875 0  0.1875 0.21875 0  0.21875 0.21875 0  0.25 0.21875 0  0.28125 0.21875 0  0.3125 0.21875 0  0.34375 0.21875 0  0.375 0.21875 0  0.40625 0.21875 0  0.4375 0.21875 0  0.46875 0.21875 0  0.5 0.21875 0  0.53125 0.21875 0  0.5625 0.21875 0  0.59375 0.21875 0  0.625 0.21875 0  0.65625 0.21875 0  0.6875 0.21875 0  0.71875 0.21875 0  0.75 0.21875 0  0.78125 0.21875 0  0.8125 0.21875 0  0.84375 0.21875 0  0.875 0.21875 0  0.90625 0.21875 0  0.9375 0.21875 0  0.96875 0.21875 0  1 0.21875 0  0 0.25 0  0.03125 0.25 0  0.0625 0.25 0  0.09375 0.25 0  0.125 0.25 0  0.15625 0.25 0  0.1875 0.25 0  0.21875 0.25 0  0.25 0.25 0  0.28125 0.25 0  0.3125 0.25 0  0.34375 0.25 0  0.375 0.25 0  0.40625 0.25 0  0.4375 0.25 0  0.46875 0.25 0  0.5 0.25 0  0.53125 0.25 0  0.5625 0.25 0  0.59375 0.25 0  0.625 0.25 0  0.65625 0.25 0  0.6875 0.25 0  0.71875 0.25 0  0.75 0.25 0  0.78125 0.25 0  0.8125 0.25 0  0.84375 0.25 0  0.875 0.25 0  0.90625 0.25 0  0.9375 0.25 0  0.96875 0.25 0  1 0.25 0  0 0.28125 0  0.03125 0.28125 0  0.0625 0.28125 0  0.09375 0.28125 0  0.125 0.28125 0  0.15625 0.28125 0  0.1875 0.28125 0  0.21875 0.28125 0  0.25 0.28125 0  0.28125 0.28125 0  0.3125 0.28125 0  0.34375 0.28125 0  0.375 0.28125 0  0.40625 0.28125 0  0.4375 0.28125 0  0.46875 0.28125 0  0.5 0.28125 0  0.53125 0.28125 0  0.5625 0.28125 0  0.59375 0.28125 0  0.625 0.28125 0  0.65625 0.28125 0  0.6875 0.28125 0  0.71875 0.28125 0  0.75 0.28125 0  0.78125 0.28125 0  0.8125 0.28125 0  0.84375 0.28125 0  0.875 0.28125 0  0.90625 0.28125 0  0.9375 0.28125 0  0.96875 0.28125 0  1 0.28125 0  0 0.3125 0  0.03125 0.3125 0  0.0625 0.3125 0  0.09375 0.3125 0  0.125 0.3125 0  0.15625 0.3125 0  0.1875 0.3125 0  0.21875 0.3125 0  0.25 0.3125 0  0.28125 0.3125 0  0.3125 0.3125 0  0.34375 0.3125 0  0.375 0.3125 0  0.40625 0.3125 0  0.4375 0.3125 0  0.46875 0.3125 0  0.5 0.3125 0  0.53125 0.3125 0  0.5625 0.3125 0  0.59375 0.3125 0  0.625 0.3125 0  0.65625 0.3125 0  0.6875 0.3125 0  0.71875 0.3125 0  0.75 0.3125 0  0.78125 0.3125 0  0.8125 0.3125 0  0.84375 0.3125 0  0.875 0.3125 0  0.90625 0.3125 0  0.9375 0.3125 0  0.96875 0.3125 0  1 0.3125 0  0 0.34375 0  0.03125 0.34375 0  0.0625 0.34375 0  0.09375 0.34375 0  0.125 0.34375 0  0.15625 0.34375 0  0.1875 0.34375 0  0.21875 0.34375 0  0.25 0.34375 0  0.28125 0.34375 0  0.3125 0.34375 0  0.34375 0.34375 0  0.375 0.34375 0  0.40625 0.34375 0  0.4375 0.34375 0  0.46875 0.34375 0  0.5 0.34375 0  0.53125 0.34375 0  0.5625 0.34375 0  0.59375 0.34375 0  0.625 0.34375 0  0.65625 0.34375 0  0.6875 0.34375 0  0.71875 0.34375 0  0.75 0.34375 0  0.78125 0.34375 0  0.8125 0.34375 0  0.84375 0.34375 0  0.875 0.34375 0  0.90625 0.34375 0  0.9375 0.34375 0  0.96875 0.34375 0  1 0.34375 0  0 0.375 0  0.03125 0.375 0  0.0625 0.375 0  0.09375 0.375 0  0.125 0.375 0  0.15625 0.375 0  0.1875 0.375 0  0.21875 0.375 0  0.25 0.375 0  0.28125 0.375 0  0.3125 0.375 0  0.34375 0.375 0  0.375 0.375 0  0.40625 0.375 0  0.4375 0.375 0  0.46875 0.375 0  0.5 0.375 0  0.53125 0.375 0  0.5625 0.375 0  0.59375 0.375 0  0.625 0.375 0  0.65625 0.375 0  0.6875 0.375 0  0.71875 0.375 0  0.75 0.375 0  0.78125 0.375 0  0.8125 0.375 0  0.84375 0.375 0  0.875 0.375 0  0.90625 0.375 0  0.9375 0.375 0  0.96875 0.375 0  1 0.375 0  0 0.40625 0  0.03125 0.40625 0  0.0625 0.40625 0  0.09375 0.40625 0  0.125 0.40625 0  0.15625 0.40625 0  0.1875 0.40625 0  0.21875 0.40625 0  0.25 0.40625 0  0.28125 0.40625 0  0.3125 0.40625 0  0.34375 0.40625 0  0.375 0.40625 0  0.40625 0.40625 0  0.4375 0.40625 0  0.46875 0.40625 0  0.5 0.40625 0  0.53125 0.40625 0  0.5625 0.40625 0  0.59375 0.40625 0  0.625 0.40625 0  0.65625 0.40625 0  0.6875 0.40625 0  0.71875 0.40625 0  0.75 0.40625 0  0.78125 0.40625 0  0.8125 0.40625 0  0.84375 0.40625 0  0.875 0.40625 0  0.90625 0.40625 0  0.9375 0.40625 0  0.96875 0.40625 0  1 0.40625 0  0 0.4375 0  0.03125 0.4375 0  0.0625 0.4375 0  0.09375 0.4375 0  0.125 0.4375 0  0.15625 0.4375 0  0.1875 0.4375 0  0.21875 0.4375 0  0.25 0.4375 0  0.28125 0.4375 0  0.3125 0.4375 0  0.34375 0.4375 0  0.375 0.4375 0  0.40625 0.4375 0  0.4375 0.4375 0  0.46875 0.4375 0  0.5 0.4375 0  0.53125 0.4375 0  0.5625 0.4375 0  0.59375 0.4375 0  0.625 0.4375 0  0.65625 0.4375 0  0.6875 0.4375 0  0.71875 0.4375 0  0.75 0.4375 0  0.78125 0.4375 0  0.8125 0.4375 0  0.84375 0.4375 0  0.875 0.4375 0  0.90625 0.4375 0  0.9375 0.4375 0  0.96875 0.4375 0  1 0.4375 0  0 0.46875 0  0.03125 0.46875 0  0.0625 0.46875 0  0.09375 0.46875 0  0.125 0.46875 0  0.15625 0.46875 0  0.1875 0.46875 0  0.21875 0.46875 0  0.25 0.46875 0  0.28125 0.46875 0  0.3125 0.46875 0  0.34375 0.46875 0  0.375 0.46875 0  0.40625 0.46875 0  0.4375 0.46875 0  0.46875 0.46875 0  0.5 0.46875 0  0.53125 0.46875 0  0.5625 0.46875 0  0.59375 0.46875 0  0.625 0.46875 0  0.65625 0.46875 0  0.6875 0.46875 0  0.71875 0.46875 0  0.75 0.46875 0  0.78125 0.46875 0  0.8125 0.46875 0  0.84375 0.46875 0  0.875 0.46875 0  0.90625 0.46875 0  0.9375 0.46875 0  0.96875 0.46875 0  1 0.46875 0  0 0.5 0  0.03125 0.5 0  0.0625 0.5 0  0.09375 0.5 0  0.125 0.5 0  0.15625 0.5 0  0.1875 0.5 0  0.21875 0.5 0  0.25 0.5 0  0.28125 0.5 0  0.3125 0.5 0  0.34375 0.5 0  0.375 0.5 0  0.40625 0.5 0  0.4375 0.5 0  0.46875 0.5 0  0.5 0.5 0  0.53125 0.5 0  0.5625 0.5 0  0.59375 0.5 0  0.625 0.5 0  0.65625 0.5 0  0.6875 0.5 0  0.71875 0.5 0  0.75 0.5 0  0.78125 0.5 0  0.8125 0.5 0  0.84375 0.5 0  0.875 0.5 0  0.90625 0.5 0  0.9375 0.5 0  0.96875 0.5 0  1 0.5 0  0 0.53125 0  0.03125 0.53125 0  0.0625 0.53125 0  0.09375 0.53125 0  0.125 0.53125 0  0.15625 0.53125 0  0.1875 0.53125 0  0.21875 0.53125 0  0.25 0.53125 0  0.28125 0.53125 0  0.3125 0.53125 0  0.34375 0.53125 0  0.375 0.53125 0  0.40625 0.53125 0  0.4375 0.53125 0  0.46875 0.53125 0  0.5 0.53125 0  0.53125 0.53125 0  0.5625 0.53125 0  0.59375 0.53125 0  0.625 0.53125 0  0.65625 0.53125 0  0.6875 0.53125 0  0.71875 0.53125 0  0.75 0.53125 0  0.78125 
[...]
<CellData  Scalars="dual weights"> 
<DataArray  type="Float64"  Name="dual weights"  format="ascii">1.2691669533438722e-07   1.2524152947454541e-07   1.2691669533438720e-07   1.2524152947454559e-07   1.2413625339506595e-07   1.2579759949433385e-07   1.2413625339506584e-07   1.2579759949433385e-07   1.3058861900570180e-07   1.2718237180317343e-07   1.3058861900570193e-07   1.2718237180317369e-07   1.2495054160328772e-07   1.2831428044081358e-07   1.2495054160328778e-07   1.2831428044081421e-07   1.3666201549699315e-07   1.3140893662351050e-07   1.3666201549699286e-07   1.3140893662351013e-07   1.2798101560856526e-07   1.3315958627260960e-07   1.2798101560856468e-07   1.3315958627260984e-07   1.4534766199023509e-07   1.3806365531913187e-07   1.4534766199023496e-07   1.3806365531913113e-07   1.3332706560175506e-07   1.4049845550584130e-07   1.3332706560175525e-07   1.4049845550584165e-07   1.5695931571282905e-07   1.4737727292121563e-07   1.5695931571282815e-07   1.4737727292121500e-07   1.4116775780325265e-07   1.5058907937452768e-07   1.4116775780325365e-07   1.5058907937452660e-07   1.7194067294568202e-07   1.5968663465270955e-07   1.7194067294568094e-07   1.5968663465271312e-07   1.5177443356426746e-07   1.6380370430068234e-07   1.5177443356426799e-07   1.6380370430068424e-07   1.9090906827015956e-07   1.7546353804253255e-07   1.9090906827015863e-07   1.7546353804253512e-07   1.6553139351085086e-07   1.8066231837186681e-07   1.6553139351085102e-07   1.8066231837186975e-07   2.1472763770811824e-07   1.9536110511213089e-07   2.1472763770811570e-07   1.9536110511213177e-07   1.8296853551740360e-07   2.0188731505172035e-07   1.8296853551740294e-07   2.0188731505172043e-07   2.4462936282606915e-07   2.2028983088790410e-07   2.4462936282606592e-07   2.2028983088790836e-07   2.0481288350279542e-07   2.2849473295369201e-07   2.0481288350279621e-07   2.2849473295369543e-07   2.8244297626187673e-07   2.5154708224875886e-07   2.8244297626187503e-07   2.5154708224876056e-07   2.3207153596528205e-07   2.6195365009625793e-07   2.3207153596528081e-07   2.6195365009626105e-07   3.3103746529352777e-07   2.9104897228258341e-07   3.3103746529352624e-07   2.9104897228258648e-07   2.6616890752119913e-07   3.0448210815369567e-07   2.6616890752120273e-07   3.0448210815369461e-07   3.9529311269121213e-07   3.4177115211738502e-07   3.9529311269120970e-07   3.4177115211737973e-07   3.0917949822943740e-07   3.5964080720942686e-07   3.0917949822943910e-07   3.5964080720941611e-07   4.8455921346011915e-07   4.0864014551293476e-07   4.8455921346011470e-07   4.0864014551293434e-07   3.6422212526774557e-07   4.3364602150911195e-07   3.6422212526775007e-07   4.3364602150911565e-07   6.2036715104429631e-07   5.0038632416710409e-07   6.2036715104429080e-07   5.0038632416710684e-07   4.3605140831288387e-07   5.3863360425450116e-07   4.3605140831289039e-07   5.3863360425451556e-07   8.6920683919679350e-07   6.3275190604213378e-07   8.6920683919678916e-07   6.3275190604214310e-07   5.3122869157804301e-07   7.0184248356892773e-07   5.3122869157803274e-07   7.0184248356892868e-07   1.5377455356368559e-06   8.3055588422314712e-07   1.5377455356368477e-06   8.3055588422315548e-07   6.5052021055907647e-07   9.9594494480871407e-07   6.5052021055906705e-07   9.9594494480871725e-07   1.4074897473970620e-06   3.8312253398547766e-07   1.4074897473970527e-06   3.8312253398547559e-07   1.3040139291654026e-06   3.2029710594183267e-07   1.3040139291653969e-06   3.2029710594182706e-07   1.1761053348434950e-06   4.3180520967149959e-07   1.1761053348434821e-06   4.3180520967147900e-07   1.1399481077391995e-06   4.0691546181875406e-07   1.1399481077391830e-06   4.0691546181873780e-07   1.0253402654392175e-06   5.6958100686488951e-07   1.0253402654392016e-06   5.6958100686488559e-07   9.6390999299735803e-07   5.5047476104192103e-07   9.6390999299735528e-07   5.5047476104190695e-07   9.0942729043539519e-07   6.8905607867913886e-07   9.0942729043539148e-07   6.8905607867914585e-07   8.2811165388588390e-07   6.6776329275681422e-07   8.2811165388588834e-07   6.6776329275680109e-07   8.1182348154132102e-07   7.9316633400153190e-07   8.1182348154130038e-07   7.9316633400153720e-07   7.2100942837970334e-07   7.6995971953403715e-07   7.2100942837969010e-07   7.6995971953404478e-07   7.2466256070441129e-07   8.8836631316363832e-07   7.2466256070439932e-07   8.8836631316364870e-07   6.3257936169397492e-07   8.6433598528734017e-07   6.3257936169397290e-07   8.6433598528733974e-07   6.4369348030785946e-07   9.7962101299960041e-07   6.4369348030783976e-07   9.7962101299959766e-07   5.5728510644349376e-07   9.5585211035409932e-07   5.5728510644350372e-07   9.5585211035412007e-07   5.6689770165752780e-07   1.0709668555031299e-06   5.6689770165751933e-07   1.0709668555031439e-06   4.9286139283713600e-07   1.0485372997378249e-06   4.9286139283710053e-07   1.0485372997378393e-06   4.9472799841992466e-07   1.1661583490255259e-06   4.9472799841991555e-07   1.1661583490255064e-06   4.4002801590584642e-07   1.1462592065811770e-06   4.4002801590583117e-07   1.1462592065811865e-06   4.3216367421581723e-07   1.2692174953358317e-06   4.3216367421581379e-07   1.2692174953358139e-06   4.0313883160748477e-07   1.2533372996989132e-06   4.0313883160750255e-07   1.2533372996988875e-06   3.9369248291597087e-07   1.3850499530839779e-06   3.9369248291596187e-07   1.3850499530839506e-06   3.9092902513329787e-07   1.3752915860112049e-06   3.9092902513326309e-07   1.3752915860112077e-06   4.0870935801474209e-07   1.5203746392885688e-06   4.0870935801473346e-07   1.5203746392885709e-06   4.1515030486773851e-07   1.5201097365516751e-06   4.1515030486774423e-07   1.5201097365516732e-06   5.1407744043889688e-07   1.6854031348697145e-06   5.1407744043890070e-07   1.6854031348697228e-06   4.8626345055168906e-07   1.7008897851188444e-06   4.8626345055167540e-07   1.7008897851188394e-06   7.4937407173835136e-07   1.8969549363363026e-06   7.4937407173835231e-07   1.8969549363362996e-06   6.1184110312790910e-07   1.9422811723465922e-06   6.1184110312792784e-07   1.9422811723466045e-06   1.2303364749967906e-06   2.1816076334731128e-06   1.2303364749967912e-06   2.1816076334731154e-06   8.0002702156325017e-07   2.2984277948193359e-06   8.0002702156325112e-07   2.2984277948193414e-06   2.5538941482129434e-06   2.5538941482129383e-06   2.5538941482129460e-06   2.5538941482129396e-06   1.0488096960364102e-06   2.9114721531888419e-06   1.0488096960364110e-06   2.9114721531888410e-06   1.2606237244466877e-07   1.2275390174860388e-07   1.2606237244466848e-07   1.2275390174860446e-07   1.2057813536535961e-07   1.2384617631303758e-07   1.2057813536535935e-07   1.2384617631303819e-07   1.2969705133856937e-07   1.2463320781582165e-07   1.2969705133856987e-07   1.2463320781582067e-07   1.2135972438224270e-07   1.2629929587019935e-07   1.2135972438224392e-07   1.2629929587019834e-07   1.3571447714063609e-07   1.2872630747748773e-07   1.3571447714063812e-07   1.2872630747748866e-07   1.2426358164585105e-07   1.3103423676056080e-07   1.2426358164585147e-07   1.3103423676056202e-07   1.4431932504568136e-07   1.3516508652317355e-07   1.4431932504568178e-07   1.3516508652316998e-07   1.2937939180020216e-07   1.3820560812637247e-07   1.2937939180020253e-07   1.3820560812636678e-07   1.5581578008474839e-07   1.4416201911629530e-07   1.5581578008474871e-07   1.4416201911629403e-07   1.3686764507204043e-07   1.4805485409060109e-07   1.3686764507203736e-07   1.4805485409059704e-07   1.7063234769178023e-07   1.5602445525470265e-07   1.7063234769177711e-07   1.5602445525470736e-07   1.4696910201133494e-07   1.6092777792024379e-07   1.4696910201133454e-07   1.6092777792024768e-07   1.8936133420366295e-07   1.7117690148417646e-07   1.8936133420366163e-07   1.7117690148417857e-07   1.6001957092414463e-07   1.7730196300024040e-07   1.6001957092414482e-07   1.7730196300023371e-07   2.1282240232214953e-07   1.9019489642021599e-07   2.1282240232214365e-07   1.9019489642021139e-07   1.7647159195571875e-07   1.9782920539269185e-07   1.7647159195572122e-07   1.9782920539270022e-07   2.4216795727534225e-07   2.1385640768094546e-07   2.4216795727533791e-07   2.1385640768093069e-07   1.9692531742342641e-07   2.2340182051652248e-07   1.9692531742341722e-07   2.2340182051651965e-07   2.7906505830592823e-07   2.4322001946512516e-07   2.7906505830592092e-07   2.4322001946513241e-07   2.2217123052667691e-07   2.5525791796105236e-07   2.2217123052666552e-07   2.5525791796104415e-07   3.2602392263824996e-07   2.7974244098044990e-07   3.2602392263824392e-07   2.7974244098043645e-07   2.5324557908387947e-07   2.9514978463911558e-07   2.5324557908388789e-07   2.9514978463909213e-07   3.8701482966189766e-07   3.2544310230241025e-07   3.8701482966189147e-07   3.2544310230241285e-07   2.9148910421086727e-07   3.4560452468341416e-07   2.9148910421086801e-07   3.4560452468342358e-07   4.6861667004338584e-07   3.8307273848206507e-07   4.6861667004339764e-07   3.8307273848205284e-07   3.3855938881275970e-07   4.1025457558719949e-07   3.3855938881274975e-07   4.1025457558718969e-07   5.8154065948987850e-07   4.5601692455421984e-07   5.8154065948986050e-07   4.5601692455421989e-07   3.9621118960420162e-07   4.9380624108862614e-07   3.9621118960418696e-07   4.9380624108863715e-07   7.3363671780674472e-07   5.4768415698687171e-07   7.3363671780675023e-07   5.4768415698687860e-07   4.6518067593205092e-07   5.9925806142948153e-07   4.6518067593201582e-07   5.9925806142944871e-07   7.5712170483362471e-07   6.8571522759151532e-07   7.5712170483360936e-07   6.8571522759148409e-07   5.3787595432520801e-07   7.2639489807219523e-07   5.3787595432521310e-07   7.2639489807218570e-07   1.1141017181577410e-06   3.3381676245284241e-07   1.1141017181577533e-06   3.3381676245286253e-07   1.0806303013425513e-06   3.1521614984195678e-07   1.0806303013425765e-06   3.1521614984193587e-07   9.0754405647400814e-07   3.8878109518966552e-07   9.0754405647398326e-07   3.8878109518962963e-07   9.2796061577468904e-07   3.7725735568464076e-07   9.2796061577474907e-07   3.7725735568469508e-07   7.6883884319962611e-07   4.9596446292852815e-07   7.6883884319961065e-07   4.9596446292845488e-07   8.4008593327007277e-07   5.0485583407043715e-07   8.4008593327008643e-07   5.0485583407047220e-07   6.6181258439888886e-07   6.0100994093559416e-07   6.6181258439891109e-07   6.0100994093556642e-07   7.4648784223967752e-07   6.1779552030986476e-07   7.4648784223972802e-07   6.1779552030989123e-07   5.7280614536490825e-07   6.9769187729936355e-07   5.7280614536490973e-07   6.9769187729936852e-07   6.5966235521335938e-07   7.1786769840537024e-07   6.5966235521341380e-07   7.1786769840544457e-07   4.9571760634784974e-07   7.8812099494842941e-07   4.9571760634782338e-07   7.8812099494837096e-07   5.8175855740837999e-07   8.1050941595808041e-07   5.8175855740838147e-07   8.1050941595811144e-07   4.2842876787141601e-07   8.7549951736214181e-07   4.2842876787138610e-07   8.7549951736211057e-07   5.1206341934926399e-07   9.0013918972424497e-07   5.1206341934923582e-07   9.0013918972425672e-07   3.7249102001645194e-07   9.6299029288331102e-07   3.7249102001643304e-07   9.6299029288330319e-07   4.5022087074680539e-07   9.9048210474048888e-07   4.5022087074677495e-07   9.9048210474047659e-07   3.3454430111906421e-07   1.0537206004861299e-06   3.3454430111904208e-07   1.0537206004861376e-06   3.9762237077950092e-07   1.0850775789826668e-06   3.9762237077948499e-07   1.0850775789826935e-06   3.2755899097078948e-07   1.1510012677692877e-06   3.2755899097080558e-07   1.1510012677693447e-06   3.5871070929859520e-07   1.1877220648924772e-06   3.5871070929857376e-07   1.1877220648925314e-06   3.6660318564831105e-07   1.2586009194323429e-06   3.6660318564834144e-07   1.2586009194324617e-06   3.4202976398851602e-07   1.3029324753318819e-06   3.4202976398856028e-07   1.3029324753319493e-06   4.6060619424830925e-07   1.3810276636907328e-06   4.6060619424831369e-07   1.3810276636907597e-06   3.5857920718514442e-07   1.4365177454968969e-06   3.5857920718515590e-07   1.4365177454969079e-06   6.1529393022350602e-07   1.5236261646405409e-06   6.1529393022351989e-07   1.5236261646406139e-06   4.1596302763592687e-07   1.5962067217773518e-06   4.1596302763593285e-07   1.5962067217773895e-06   8.4397139570626431e-07   1.6916597882028672e-06   8.4397139570627374e-07   1.6916597882028554e-06   5.1468788095909149e-07   1.7913904518685481e-06   5.1468788095909360e-07   1.7913904518685862e-06   1.1571745294566521e-06   1.8878038729134469e-06   1.1571745294566507e-06   1.8878038729134829e-06   6.4936375016322810e-07   2.0269052239873215e-06   6.4936375016323054e-07   2.0269052239873588e-06   1.2303364749967859e-06   2.1816076334731196e-06   1.2303364749967893e-06   2.1816076334731302e-06   8.0002702156324953e-07   2.2984277948193372e-06   8.0002702156325112e-07   2.2984277948193550e-06   1.2297779572843944e-07   1.1814464382233178e-07   1.2297779572843889e-07   1.1814464382233215e-07   1.1496337418286233e-07   1.1973242302097955e-07   1.1496337418286190e-07   1.1973242302097942e-07   1.2647946121429664e-07   1.1992938182307353e-07   1.2647946121429619e-07   1.1992938182307888e-07   1.1570463546099604e-07   1.2205791833021006e-07   1.1570463546099587e-07   1.2205791833020998e-07   1.3228131394314849e-07   1.2380641809015779e-07   1.3228131394314407e-07   1.2380641809015546e-07   1.1843067035903952e-07   1.2656202167826758e-07   1.1843067035904246e-07   1.2656202167826424e-07   1.4056826249710192e-07   1.2989107044212036e-07   1.4056826249709761e-07   1.2989107044211594e-07   1.2321824775920771e-07   1.3337960439206044e-07   1.2321824775920421e-07   1.3337960439205911e-07   1.5161312788330915e-07   1.3836715695573954e-07   1.5161312788330550e-07   1.3836715695573599e-07   1.3020303488201026e-07   1.4272010496818688e-07   1.3020303488201200e-07   1.4272010496818548e-07   1.6579502031708605e-07   1.4949650829365891e-07   1.6579502031709073e-07   1.4949650829364694e-07   1.3958552144787897e-07   1.5487940150880996e-07   1.3958552144786557e-07   1.5487940150881329e-07   1.8362663838916155e-07   1.6363250313648731e-07   1.8362663838915186e-07   1.6363250313649967e-07   1.5163927434274509e-07   1.7025675192082750e-07   1.5163927434273519e-07   1.7025675192083655e-07   2.0579415759717420e-07   1.8123803121668808e-07   2.0579415759718307e-07   1.8123803121668678e-07   1.6672102934610518e-07   1.8937766003016946e-07   1.6672102934609843e-07   1.8937766003015003e-07   2.3321459763859980e-07   2.0290754251072845e-07   2.3321459763861028e-07   2.0290754251072721e-07   1.8528110792808476e-07   2.1292274697905752e-07   1.8528110792808402e-07   2.1292274697905824e-07   2.6711456598043640e-07   2.2938993165919874e-07   2.6711456598042772e-07   2.2938993165917706e-07   2.0786993171998696e-07   2.4175885173193613e-07   2.0786993171999474e-07   2.4175885173191712e-07   3.0912161245167892e-07   2.6159981599829586e-07   3.0912161245167040e-07   2.6159981599829162e-07   2.3512955352052889e-07   2.7695470162460740e-07   2.3512955352052544e-07   2.7695470162460623e-07   3.6129656502204813e-07   3.0057828341630190e-07   3.6129656502207370e-07   3.0057828341632297e-07   2.6774256276183145e-07   3.1971798198252893e-07   2.6774256276181991e-07   3.1971798198250273e-07   4.2577040513007283e-07   3.4729479208753937e-07   4.2577040513007913e-07   3.4729479208751777e-07   3.0627306460729398e-07   3.7105015260090407e-07   3.0627306460725841e-07   3.7105015260094881e-07   5.0258854831401674e-07   4.0204467754747307e-07   5.0258854831399038e-07   4.0204467754744861e-07   3.5075538147449211e-07   4.3053778624962496e-07   3.5075538147447850e-07   4.3053778624960770e-07   5.7878550433873505e-07   4.6362356288697343e-07   5.7878550433868242e-07   4.6362356288696491e-07   3.9964804030392727e-07   4.9342164677930797e-07   3.9964804030391526e-07   4.9342164677930204e-07   5.0846707222575225e-07   5.5205490522346887e-07   5.0846707222575595e-07   5.5205490522349025e-07   4.4409414060180975e-07   5.6218132874057342e-07   4.4409414060180255e-07   5.6218132874053732e-07   9.4393453205160134e-07   4.3368828396324114e-07   9.4393453205165735e-07   4.3368828396339773e-07   9.5122339737041053e-07   4.3523891964059844e-07   9.5122339737037188e-07   4.3523891964073031e-07   8.2329030728718696e-07   4.5986809183734285e-07   8.2329030728704772e-07   4.5986809183737874e-07   8.0306951604263323e-07   4.4762473571863149e-07   8.0306951604260750e-07   4.4762473571870561e-07   7.1720471220840455e-07   5.3553990426661761e-07   7.1720471220836929e-07   5.3553990426668844e-07   7.4818379515662324e-07   5.3837407474352878e-07   7.4818379515661043e-07   5.3837407474360777e-07   6.2454081269398589e-07   6.1966334681436606e-07   6.2454081269388647e-07   6.1966334681434509e-07   6.8351711782422938e-07   6.3174338389621269e-07   6.8351711782420535e-07   6.3174338389619205e-07   5.4283132096196412e-07   7.0302693596362414e-07   5.4283132096194315e-07   7.0302693596370577e-07   6.1633732689531469e-07   7.2066918263938341e-07   6.1633732689523845e-07   7.2066918263944672e-07   4.6952044830226055e-07   7.8407516122283641e-07   4.6952044830228670e-07   7.8407516122289676e-07   5.5125753359743947e-07   8.0573099442165656e-07   5.5125753359750257e-07   8.0573099442167583e-07   4.0360122960367122e-07   8.6380953256952457e-07   4.0360122960362644e-07   8.6380953256969726e-07   4.8991816598071041e-07   8.8910646521789905e-07   4.8991816598069305e-07   8.8910646521793008e-07   3.4669158043769237e-07   9.4407024269123441e-07   3.4669158043767363e-07   9.4407024269131678e-07   4.3318725204405600e-07   9.7331136611323963e-07   4.3318725204397834e-07   9.7331136611323327e-07   3.0493789673513256e-07   1.0270038622583022e-06   3.0493789673515739e-07   1.0270038622584011e-06   3.8264641863962500e-07   1.0609761371930187e-06   3.8264641863959159e-07   1.0609761371930801e-06   2.9086972418950601e-07   1.1149174996299210e-06   2.9086972418943999e-07   1.1149174996299737e-06   3.4192737315805798e-07   1.1548733251207533e-06   3.4192737315809149e-07   1.1548733251208187e-06   3.1931037962766382e-07   1.2102096371894650e-06   3.1931037962758658e-07   1.2102096371895630e-06   3.1791586967016826e-07   1.2579561173452873e-06   3.1791586967011209e-07   1.2579561173453656e-06   3.9635864072122301e-07   1.3151810670812948e-06   3.9635864072117261e-07   1.3151810670813151e-06   3.2008372784050387e-07   1.3732177408478074e-06   3.2008372784047798e-07   1.3732177408478091e-06   5.1852799970596630e-07   1.4314278371392908e-06   5.1852799970593496e-07   1.4314278371393293e-06   3.5548413948115430e-07   1.5029202142399938e-06   3.5548413948117124e-07   1.5029202142401176e-06   6.7776077237655760e-07   1.5582851411631027e-06   6.7776077237657030e-07   1.5582851411631087e-06   4.2325708834205559e-07   1.6459469416945587e-06   4.2325708834203505e-07   1.6459469416945640e-06   8.4397139570626643e-07   1.6916597882028168e-06   8.4397139570627310e-07   1.6916597882028607e-06   5.1468788095902531e-07   1.7913904518685483e-06   5.1468788095904913e-07   1.7913904518685680e-06   7.4937407173834617e-07   1.8969549363363032e-06   7.4937407173834458e-07   1.8969549363363176e-06   6.1184110312792340e-07   1.9422811723465965e-06   6.1184110312792657e-07   1.9422811723466075e-06   1.1776587579107233e-07   1.1156253759254333e-07   1.1776587579107204e-07   1.1156253759254302e-07   1.0747019585289724e-07   1.1359020229623002e-07   1.0747019585289690e-07   1.1359020229623007e-07   1.2104921990582316e-07   1.1322797425560409e-07   1.2104921990582036e-07   1.1322797425560509e-07   1.0816758476295818e-07   1.1573337753166107e-07   1.0816758476295681e-07   1.1573337753166489e-07   1.2649442206654250e-07   1.1682496994269257e-07   1.2649442206654126e-07   1.1682496994269620e-07   1.1067970157966809e-07   1.1990473415628740e-07   1.1067970157966423e-07   1.1990473415629068e-07   1.3425654950230540e-07   1.2244902821616856e-07   1.3425654950230892e-07   1.2244902821617163e-07  