<?xml version="1.0"?>
<VTKFile type="UnstructuredGrid"  version="0.1"  >
<UnstructuredGrid>
<Piece  NumberOfPoints="4225" NumberOfCells="8192">
<Points>
<DataArray  type="Float64"  NumberOfComponents="3"  format="ascii">0 0 0  0.03125 0 0  0.0625 0 0  0.09375 0 0  0.125 0 0  0.15625 0 0  0.1875 0 0  0.21875 0 0  0.25 0 0  0.28125 0 0  0.3125 0 0  0.34375 0 0  0.375 0 0  0.40625 0 0  0.4375 0 0  0.46875 0 0  0.5 0 0  0.53125 0 0  0.5625 0 0  0.59375 0 0  0.625 0 0  0.65625 0 0  0.6875 0 0  0.71875 0 0  0.75 0 0  0.78125 0 0  0.8125 0 0  0.84375 0 0  0.875 0 0  0.90625 0 0  0.9375 0 0  0.96875 0 0  1 0 0  0 0.03125 0  0.03125 0.03125 0  0.0625 0.03125 0  0.09375 0.03125 0  0.125 0.03125 0  0.15625 0.03125 0  0.1875 0.03125 0  0.21875 0.03125 0  0.25 0.03125 0  0.28125 0.03125 0  0.3125 0.03125 0  0.34375 0.03125 0  0.375 0.03125 0  0.40625 0.03125 0  0.4375 0.03125 0  0.46875 0.03125 0  0.5 0.03125 0  0.53125 0.03125 0  0.5625 0.03125 0  0.59375 0.03125 0  0.625 0.03125 0  0.65625 0.03125 0  0.6875 0.03125 0  0.71875 0.03125 0  0.75 0.03125 0  0.78125 0.03125 0  0.8125 0.03125 0  0.84375 0.03125 0  0.875 0.03125 0  0.90625 0.03125 0  0.9375 0.03125 0  0.96875 0.03125 0  1 0.03125 0  0 0.0625 0  0.03125 0.0625 0  0.0625 0.0625 0  0.09375 0.0625 0  0.125 0.0625 0  0.15625 0.0625 0  0.1875 0.0625 0  0.21875 0.0625 0  0.25 0.0625 0  0.28125 0.0625 0  0.3125 0.0625 0  0.34375 0.0625 0  0.375 0.0625 0  0.40625 0.0625 0  0.4375 0.0625 0  0.46875 0.0625 0  0.5 0.0625 0  0.53125 0.0625 0  0.5625 0.0625 0  0.59375 0.0625 0  0.625 0.0625 0  0.65625 0.0625 0  0.6875 0.0625 0  0.71875 0.0625 0  0.75 0.0625 0  0.78125 0.0625 0  0.8125 0.0625 0  0.84375 0.0625 0  0.875 0.0625 0  0.90625 0.0625 0  0.9375 0.0625 0  0.96875 0.0625 0  1 0.0625 0  0 0.09375 0  0.03125 0.09375 0  0.0625 0.09375 0  0.09375 0.09375 0  0.125 0.09375 0  0.15625 0.09375 0  0.1875 0.09375 0  0.21875 0.09375 0  0.25 0.09375 0  0.28125 0.09375 0  0.3125 0.09375 0  0.34375 0.09375 0  0.375 0.09375 0  0.40625 0.09375 0  0.4375 0.09375 0  0.46875 0.09375 0  0.5 0.09375 0  0.53125 0.09375 0  0.5625 0.09375 0  0.59375 0.09375 0  0.625 0.09375 0  0.65625 0.09375 0  0.6875 0.09375 0  0.71875 0.09375 0  0.75 0.09375 0  0.78125 0.09375 0  0.8125 0.09375 0  0.84375 0.09375 0  0.875 0.09375 0  0.90625 0.09375 0  0.9375 0.09375 0  0.96875 0.09375 0  1 0.09375 0  0 0.125 0  0.03125 0.125 0  0.0625 0.125 0  0.09375 0.125 0  0.125 0.125 0  0.15625 0.125 0  0.1875 0.125 0  0.21875 0.125 0  0.25 0.125 0  0.28125 0.125 0  0.3125 0.125 0  0.34375 0.125 0  0.375 0.125 0  0.40625 0.125 0  0.4375 0.125 0  0.46875 0.125 0  0.5 0.125 0  0.53125 0.125 0  0.5625 0.125 0  0.59375 0.125 0  0.625 0.125 0  0.65625 0.125 0  0.6875 0.125 0  0.71875 0.125 0  0.75 0.125 0  0.78125 0.125 0  0.8125 0.125 0  0.84375 0.125 0  0.875 0.125 0  0.90625 0.125 0  0.9375 0.125 0  0.96875 0.125 0  1 0.125 0  0 0.15625 0  0.03125 0.15625 0  0.0625 0.15625 0  0.09375 0.15625 0  0.125 0.15625 0  0.15625 0.15625 0  0.1875 0.15625 0  0.21875 0.15625 0  0.25 0.15625 0  0.28125 0.15625 0  0.3125 0.15625 0  0.34375 0.15625 0  0.375 0.15625 0  0.40625 0.15625 0  0.4375 0.15625 0  0.46875 0.15625 0  0.5 0.15625 0  0.53125 0.15625 0  0.5625 0.15625 0  0.59375 0.15625 0  0.625 0.15625 0  0.65625 0.15625 0  0.6875 0.15625 0  0.71875 0.15625 0  0.75 0.15625 0  0.78125 0.15625 0  0.8125 0.15625 0  0.84375 0.15625 0  0.875 0.15625 0  0.90625 0.15625 0  0.9375 0.15625 0  0.96875 0.15625 0  1 0.15625 0  0 0.1875 0  0.03125 0.1875 0  0.0625 0.1875 0  0.09375 0.1875 0  0.125 0.1875 0  0.15625 0.1875 0  0.1875 0.1875 0  0.21875 0.1875 0  0.25 0.1875 0  0.28125 0.1875 0  0.3125 0.1875 0  0.34375 0.1875 0  0.375 0.1875 0  0.40625 0.1875 0  0.4375 0.1875 0  0.46875 0.1875 0  0.5 0.1875 0  0.53125 0.1875 0  0.5625 0.1875 0  0.59375 0.1875 0  0.625 0.1875 0  0.65625 0.1875 0  0.6875 0.1875 0  0.71875 0.1875 0  0.75 0.1875 0  0.78125 0.1875 0  0.8125 0.1875 0  0.84375 0.1875 0  0.875 0.1875 0  0.90625 0.1875 0  0.9375 0.1875 0  0.96875 0.1875 0  1 0.1875 0  0 0.21875 0  0.03125 0.21875 0  0.0625 0.21875 0  0.09375 0.21875 0  0.125 0.21875 0  0.15625 0.21875 0  0.1875 0.21875 0  0.21875 0.21875 0  0.25 0.21875 0  0.28125 0.21875 0  0.3125 0.21875 0  0.34375 0.21875 0  0.375 0.21875 0  0.40625 0.21875 0  0.4375 0.21875 0  0.46875 0.21875 0  0.5 0.21875 0  0.53125 0.21875 0  0.5625 0.21875 0  0.59375 0.21875 0  0.625 0.21875 0  0.65625 0.21875 0  0.6875 0.21875 0  0.71875 0.21875 0  0.75 0.21875 0  0.78125 0.21875 0  0.8125 0.21875 0  0.84375 0.21875 0  0.875 0.21875 0  0.90625 0.21875 0  0.9375 0.21875 0  0.96875 0.21875 0  1 0.21875 0  0 0.25 0  0.03125 0.25 0  0.0625 0.25 0  0.09375 0.25 0  0.125 0.25 0  0.15625 0.25 0  0.1875 0.25 0  0.21875 0.25 0  0.25 0.25 0  0.28125 0.25 0  0.3125 0.25 0  0.34375 0.25 0  0.375 0.25 0  0.40625 0.25 0  0.4375 0.25 0  0.46875 0.25 0  0.5 0.25 0  0.53125 0.25 0  0.5625 0.25 0  0.59375 0.25 0  0.625 0.25 0  0.65625 0.25 0  0.6875 0.25 0  0.71875 0.25 0  0.75 0.25 0  0.78125 0.25 0  0.8125 0.25 0  0.84375 0.25 0  0.875 0.25 0  0.90625 0.25 0  0.9375 0.25 0  0.96875 0.25 0  1 0.25 0  0 0.28125 0  0.03125 0.28125 0  0.0625 0.28125 0  0.09375 0.28125 0  0.125 0.28125 0  0.15625 0.28125 0  0.1875 0.28125 0  0.21875 0.28125 0  0.25 0.28125 0  0.28125 0.28125 0  0.3125 0.28125 0  0.34375 0.28125 0  0.375 0.28125 0  0.40625 0.28125 0  0.4375 0.28125 0  0.46875 0.28125 0  0.5 0.28125 0  0.53125 0.28125 0  0.5625 0.28125 0  0.59375 0.28125 0  0.625 0.28125 0  0.65625 0.28125 0  0.6875 0.28125 0  0.71875 0.28125 0  0.75 0.28125 0  0.78125 0.28125 0  0.8125 0.28125 0  0.84375 0.28125 0  0.875 0.28125 0  0.90625 0.28125 0  0.9375 0.28125 0  0.96875 0.28125 0  1 0.28125 0  0 0.3125 0  0.03125 0.3125 0  0.0625 0.3125 0  0.09375 0.3125 0  0.125 0.3125 0  0.15625 0.3125 0  0.1875 0.3125 0  0.21875 0.3125 0  0.25 0.3125 0  0.28125 0.3125 0  0.3125 0.3125 0  0.34375 0.3125 0  0.375 0.3125 0  0.40625 0.3125 0  0.4375 0.3125 0  0.46875 0.3125 0  0.5 0.3125 0  0.53125 0.3125 0  0.5625 0.3125 0  0.59375 0.3125 0  0.625 0.3125 0  0.65625 0.3125 0  0.6875 0.3125 0  0.71875 0.3125 0  0.75 0.3125 0  0.78125 0.3125 0  0.8125 0.3125 0  0.84375 0.3125 0  0.875 0.3125 0  0.90625 0.3125 0  0.9375 0.3125 0  0.96875 0.3125 0  1 0.3125 0  0 0.34375 0  0.03125 0.34375 0  0.0625 0.34375 0  0.09375 0.34375 0  0.125 0.34375 0  0.15625 0.34375 0  0.1875 0.34375 0  0.21875 0.34375 0  0.25 0.34375 0  0.28125 0.34375 0  0.3125 0.34375 0  0.34375 0.34375 0  0.375 0.34375 0  0.40625 0.34375 0  0.4375 0.34375 0  0.46875 0.34375 0  0.5 0.34375 0  0.53125 0.34375 0  0.5625 0.34375 0  0.59375 0.34375 0  0.625 0.34375 0  0.65625 0.34375 0  0.6875 0.34375 0  0.71875 0.34375 0  0.75 0.34375 0  0.78125 0.34375 0  0.8125 0.34375 0  0.84375 0.34375 0  0.875 0.34375 0  0.90625 0.34375 0  0.9375 0.34375 0  0.96875 0.34375 0  1 0.34375 0  0 0.375 0  0.03125 0.375 0  0.0625 0.375 0  0.09375 0.375 0  0.125 0.375 0  0.15625 0.375 0  0.1875 0.375 0  0.21875 0.375 0  0.25 0.375 0  0.28125 0.375 0  0.3125 0.375 0  0.34375 0.375 0  0.375 0.375 0  0.40625 0.375 0  0.4375 0.375 0  0.46875 0.375 0  0.5 0.375 0  0.53125 0.375 0  0.5625 0.375 0  0.59375 0.375 0  0.625 0.375 0  0.65625 0.375 0  0.6875 0.375 0  0.71875 0.375 0  0.75 0.375 0  0.78125 0.375 0  0.8125 0.375 0  0.84375 0.375 0  0.875 0.375 0  0.90625 0.375 0  0.9375 0.375 0  0.96875 0.375 0  1 0.375 0  0 0.40625 0  0.03125 0.40625 0  0.0625 0.40625 0  0.09375 0.40625 0  0.125 0.40625 0  0.15625 0.40625 0  0.1875 0.40625 0  0.21875 0.40625 0  0.25 0.40625 0  0.28125 0.40625 0  0.3125 0.40625 0  0.34375 0.40625 0  0.375 0.40625 0  0.40625 0.40625 0  0.4375 0.40625 0  0.46875 0.40625 0  0.5 0.40625 0  0.53125 0.40625 0  0.5625 0.40625 0  0.59375 0.40625 0  0.625 0.40625 0  0.65625 0.40625 0  0.6875 0.40625 0  0.71875 0.40625 0  0.75 0.40625 0  0.78125 0.40625 0  0.8125 0.40625 0  0.84375 0.40625 0  0.875 0.40625 0  0.90625 0.40625 0  0.9375 0.40625 0  0.96875 0.40625 0  1 0.40625 0  0 0.4375 0  0.03125 0.4375 0  0.0625 0.4375 0  0.09375 0.4375 0  0.125 0.4375 0  0.15625 0.4375 0  0.1875 0.4375 0  0.21875 0.4375 0  0.25 0.4375 0  0.28125 0.4375 0  0.3125 0.4375 0  0.34375 0.4375 0  0.375 0.4375 0  0.40625 0.4375 0  0.4375 0.4375 0  0.46875 0.4375 0  0.5 0.4375 0  0.53125 0.4375 0  0.5625 0.4375 0  0.59375 0.4375 0  0.625 0.4375 0  0.65625 0.4375 0  0.6875 0.4375 0  0.71875 0.4375 0  0.75 0.4375 0  0.78125 0.4375 0  0.8125 0.4375 0  0.84375 0.4375 0  0.875 0.4375 0  0.90625 0.4375 0  0.9375 0.4375 0  0.96875 0.4375 0  1 0.4375 0  0 0.46875 0  0.03125 0.46875 0  0.0625 0.46875 0  0.09375 0.46875 0  0.125 0.46875 0  0.15625 0.46875 0  0.1875 0.46875 0  0.21875 0.46875 0  0.25 0.46875 0  0.28125 0.46875 0  0.3125 0.46875 0  0.34375 0.46875 0  0.375 0.46875 0  0.40625 0.46875 0  0.4375 0.46875 0  0.46875 0.46875 0  0.5 0.46875 0  0.53125 0.46875 0  0.5625 0.46875 0  0.59375 0.46875 0  0.625 0.46875 0  0.65625 0.46875 0  0.6875 0.46875 0  0.71875 0.46875 0  0.75 0.46875 0  0.78125 0.46875 0  0.8125 0.46875 0  0.84375 0.46875 0  0.875 0.46875 0  0.90625 0.46875 0  0.9375 0.46875 0  0.96875 0.46875 0  1 0.46875 0  0 0.5 0  0.03125 0.5 0  0.0625 0.5 0  0.09375 0.5 0  0.125 0.5 0  0.15625 0.5 0  0.1875 0.5 0  0.21875 0.5 0  0.25 0.5 0  0.28125 0.5 0  0.3125 0.5 0  0.34375 0.5 0  0.375 0.5 0  0.40625 0.5 0  0.4375 0.5 0  0.46875 0.5 0  0.5 0.5 0  0.53125 0.5 0  0.5625 0.5 0  0.59375 0.5 0  0.625 0.5 0  0.65625 0.5 0  0.6875 0.5 0  0.71875 0.5 0  0.75 0.5 0  0.78125 0.5 0  0.8125 0.5 0  0.84375 0.5 0  0.875 0.5 0  0.90625 0.5 0  0.9375 0.5 0  0.96875 0.5 0  1 0.5 0  0 0.53125 0  0.03125 0.53125 0  0.0625 0.53125 0  0.09375 0.53125 0  0.125 0.53125 0  0.15625 0.53125 0  0.1875 0.53125 0  0.21875 0.53125 0  0.25 0.53125 0  0.28125 0.53125 0  0.3125 0.53125 0  0.34375 0.53125 0  0.375 0.53125 0  0.40625 0.53125 0  0.4375 0.53125 0  0.46875 0.53125 0  0.5 0.53125 0  0.53125 0.53125 0  0.5625 0.53125 0  0.59375 0.53125 0  0.625 0.53125 0  0.65625 0.53125 0  0.6875 0.53125 0  0.71875 0.53125 0  0.75 0.53125 0  0.78125 
[...]
<CellData  Scalars="cell residuals"> 
<DataArray  type="Float64"  Name="cell residuals"  format="ascii">4.6749370495914990e-04   2.4414062500000016e-04   5.8117093331240695e-04   5.8117093331240695e-04   1.4095465556387371e-04   1.4095465556387371e-04   2.4414062500000016e-04   4.6749370495914990e-04   1.1537635806280794e-03   9.2430148857426382e-04   1.2685919000748622e-03   1.2685919000748622e-03   8.0972284920786204e-04   8.0972284920786204e-04   9.2430148857426382e-04   1.1537635806280794e-03   1.8432212976735242e-03   1.6132997722655455e-03   1.9582046574733031e-03   1.9582046574733031e-03   1.4983685416277656e-03   1.4983685416277656e-03   1.6132997722655455e-03   1.8432212976735242e-03   2.5332653672319972e-03   2.3032180498185084e-03   2.6482975415483383e-03   2.6482975415483383e-03   2.1882046972247333e-03   2.1882046972247333e-03   2.3032180498185084e-03   2.5332653672319972e-03   3.2235192578675739e-03   2.9934202730712138e-03   3.3385728347600963e-03   3.3385728347600963e-03   2.8783755182010757e-03   2.8783755182010757e-03   2.9934202730712138e-03   3.2235192578675739e-03   3.9138719584671409e-03   3.6837468417175402e-03   4.0289367820594314e-03   4.0289367820594314e-03   3.5686868407032416e-03   3.5686868407032416e-03   3.6837468417175402e-03   3.9138719584671409e-03   4.6042790233774894e-03   4.3741388835861648e-03   4.7193504776686162e-03   4.7193504776686162e-03   4.2590703476984163e-03   4.2590703476984163e-03   4.3741388835861648e-03   4.6042790233774894e-03   5.2947191860719840e-03   5.0645696232101637e-03   5.4097948745508682e-03   5.4097948745508682e-03   4.9494958331819600e-03   4.9494958331819600e-03   5.0645696232101637e-03   5.2947191860719840e-03   5.9851809922515983e-03   5.7550251328896997e-03   6.1002595481478433e-03   6.1002595481478433e-03   5.6399478805334285e-03   5.6399478805334285e-03   5.7550251328896997e-03   5.9851809922515983e-03   6.6756577261770341e-03   6.4454974523652812e-03   6.7907383134109415e-03   6.7907383134109415e-03   6.3304177985333398e-03   6.3304177985333398e-03   6.4454974523652812e-03   6.6756577261770341e-03   7.3661451900251520e-03   7.1359817021282232e-03   7.4812272685764519e-03   7.4812272685764519e-03   7.0209003147209065e-03   7.0209003147209065e-03   7.1359817021282232e-03   7.3661451900251520e-03   8.0566406250000052e-03   7.8264747245599987e-03   8.1717238305857327e-03   8.1717238305857327e-03   7.7113920449497844e-03   7.7113920449497844e-03   7.8264747245599987e-03   8.0566406250000052e-03   8.7471421433904083e-03   8.5169743859923926e-03   8.8622262213870293e-03   8.8622262213870293e-03   8.4018907175104178e-03   8.4018907175104178e-03   8.5169743859923926e-03   8.7471421433904083e-03   9.4376484099249463e-03   9.2074791927829365e-03   9.5527331770087244e-03   9.5527331770087244e-03   9.0923947507500422e-03   9.0923947507500422e-03   9.2074791927829365e-03   9.4376484099249463e-03   1.0128158453462674e-02   9.8979880680781385e-03   1.0243243774294001e-02   1.0243243774294001e-02   9.7829030095545940e-03   9.7829030095545940e-03   9.8979880680781385e-03   1.0128158453462674e-02   1.0818671550793205e-02   1.0588500215918681e-02   1.0933757323285928e-02   1.0933757323285928e-02   1.0473414658154429e-02   1.0473414658154429e-02   1.0588500215918681e-02   1.0818671550793205e-02   1.1509187152264200e-02   1.1279015035259460e-02   1.1624273297966232e-02   1.1624273297966232e-02   1.1163929067552427e-02   1.1163929067552427e-02   1.1279015035259460e-02   1.1509187152264200e-02   1.2199704832665036e-02   1.1969532063748947e-02   1.2314791290294736e-02   1.2314791290294736e-02   1.1854445755304048e-02   1.1854445755304048e-02   1.1969532063748947e-02   1.2199704832665036e-02   1.2890224257896529e-02   1.2660050939906428e-02   1.3005310978889881e-02   1.3005310978889881e-02   1.2544964345184749e-02   1.2544964345184749e-02   1.2660050939906428e-02   1.2890224257896529e-02   1.3580745161808466e-02   1.3350571377036392e-02   1.3695832107183357e-02   1.3695832107183357e-02   1.3235484539482237e-02   1.3235484539482237e-02   1.3350571377036392e-02   1.3580745161808466e-02   1.4271267329761224e-02   1.4041093144839806e-02   1.4386354467865781e-02   1.4386354467865783e-02   1.3926006099531776e-02   1.3926006099531776e-02   1.4041093144839806e-02   1.4271267329761224e-02   1.4961790586739365e-02   1.4731616056196880e-02   1.5076877891606617e-02   1.5076877891606671e-02   1.4616528831768696e-02   1.4616528831768696e-02   1.4731616056196887e-02   1.4961790586739415e-02   1.5652314788612096e-02   1.5422139957500776e-02   1.5767402238741464e-02   1.5767402238746002e-02   1.5307052577556317e-02   1.5307052577556147e-02   1.5422139957501583e-02   1.5652314788616402e-02   1.6342839815659916e-02   1.6112664721494693e-02   1.6457927393282938e-02   1.6457927393594380e-02   1.5997577205677915e-02   1.5997577205664637e-02   1.6112664721555953e-02   1.6342839815963902e-02   1.7033365570666082e-02   1.6803190242979674e-02   1.7148453271589394e-02   1.7148453289570691e-02   1.6688102608591299e-02   1.6688102607719947e-02   1.6803190246860274e-02   1.7033365588676762e-02   1.7723892127453095e-02   1.7493716493231865e-02   1.7838980471795402e-02   1.7838981356963112e-02   1.7378628802056307e-02   1.7378628753781166e-02   1.7493716701334268e-02   1.7723893035715928e-02   1.8414426310241878e-02   1.8184246142992803e-02   1.8529537712341747e-02   1.8529575315308990e-02   1.8069160729845893e-02   1.8069158442149732e-02   1.8184255712575918e-02   1.8414465774336818e-02   1.9105228850505040e-02   1.8874886645444837e-02   1.9221185953286379e-02   1.9222579368298538e-02   1.8759900626252494e-02   1.8759806806713377e-02   1.8875268329226313e-02   1.9106722441214124e-02   1.9804959588481188e-02   1.9569324680781031e-02   1.9948332718308731e-02   1.9993834061905698e-02   1.9457974546934615e-02   1.9454609944617222e-02   1.9582664508641687e-02   1.9854701202319823e-02   2.0769035318405675e-02   2.0379598232544101e-02   2.1706401720627849e-02   2.3044848931282266e-02   2.0385089327819701e-02   2.0278613857541376e-02   2.0792280890452534e-02   2.2255406967334180e-02   2.9063924134887859e-02   2.4518438598505780e-02   5.1557460278743111e-02   8.8650769897251847e-02   2.7766548777962329e-02   2.4800313444917836e-02   3.5995938908809144e-02   7.1423301517867924e-02   2.3088091301617047e-01   1.2905975829206634e-01   7.5531612861353026e-01   1.6268698487637998e+00   2.0132746176878411e-01   1.3316967465170640e-01   4.0218121822064534e-01   1.2482777839769417e+00   4.6749370495914990e-04   2.4414062500000016e-04   5.8117093331240695e-04   5.8117093331240695e-04   1.4095465556387371e-04   1.4095465556387371e-04   2.4414062500000016e-04   4.6749370495914990e-04   1.1537635806280794e-03   9.2430148857426382e-04   1.2685919000748622e-03   1.2685919000748622e-03   8.0972284920786204e-04   8.0972284920786204e-04   9.2430148857426382e-04   1.1537635806280794e-03   1.8432212976735242e-03   1.6132997722655455e-03   1.9582046574733031e-03   1.9582046574733031e-03   1.4983685416277656e-03   1.4983685416277656e-03   1.6132997722655455e-03   1.8432212976735242e-03   2.5332653672319972e-03   2.3032180498185084e-03   2.6482975415483383e-03   2.6482975415483383e-03   2.1882046972247333e-03   2.1882046972247333e-03   2.3032180498185084e-03   2.5332653672319972e-03   3.2235192578675739e-03   2.9934202730712138e-03   3.3385728347600963e-03   3.3385728347600963e-03   2.8783755182010757e-03   2.8783755182010757e-03   2.9934202730712138e-03   3.2235192578675739e-03   3.9138719584671409e-03   3.6837468417175402e-03   4.0289367820594314e-03   4.0289367820594314e-03   3.5686868407032416e-03   3.5686868407032416e-03   3.6837468417175402e-03   3.9138719584671409e-03   4.6042790233774894e-03   4.3741388835861648e-03   4.7193504776686162e-03   4.7193504776686162e-03   4.2590703476984163e-03   4.2590703476984163e-03   4.3741388835861648e-03   4.6042790233774894e-03   5.2947191860719840e-03   5.0645696232101637e-03   5.4097948745508682e-03   5.4097948745508682e-03   4.9494958331819600e-03   4.9494958331819600e-03   5.0645696232101637e-03   5.2947191860719840e-03   5.9851809922515983e-03   5.7550251328896997e-03   6.1002595481478433e-03   6.1002595481478433e-03   5.6399478805334285e-03   5.6399478805334285e-03   5.7550251328896997e-03   5.9851809922515983e-03   6.6756577261770341e-03   6.4454974523652812e-03   6.7907383134109415e-03   6.7907383134109415e-03   6.3304177985333398e-03   6.3304177985333398e-03   6.4454974523652812e-03   6.6756577261770341e-03   7.3661451900251520e-03   7.1359817021282232e-03   7.4812272685764519e-03   7.4812272685764519e-03   7.0209003147209065e-03   7.0209003147209065e-03   7.1359817021282232e-03   7.3661451900251520e-03   8.0566406250000052e-03   7.8264747245599987e-03   8.1717238305857327e-03   8.1717238305857327e-03   7.7113920449497844e-03   7.7113920449497844e-03   7.8264747245599987e-03   8.0566406250000052e-03   8.7471421433904083e-03   8.5169743859923926e-03   8.8622262213870293e-03   8.8622262213870293e-03   8.4018907175104178e-03   8.4018907175104178e-03   8.5169743859923926e-03   8.7471421433904083e-03   9.4376484099249463e-03   9.2074791927829365e-03   9.5527331770087244e-03   9.5527331770087244e-03   9.0923947507500422e-03   9.0923947507500422e-03   9.2074791927829365e-03   9.4376484099249463e-03   1.0128158453462674e-02   9.8979880680781385e-03   1.0243243774294001e-02   1.0243243774294001e-02   9.7829030095545940e-03   9.7829030095545940e-03   9.8979880680781385e-03   1.0128158453462674e-02   1.0818671550793205e-02   1.0588500215918681e-02   1.0933757323285928e-02   1.0933757323285928e-02   1.0473414658154429e-02   1.0473414658154429e-02   1.0588500215918681e-02   1.0818671550793205e-02   1.1509187152264200e-02   1.1279015035259460e-02   1.1624273297966232e-02   1.1624273297966232e-02   1.1163929067552427e-02   1.1163929067552427e-02   1.1279015035259460e-02   1.1509187152264200e-02   1.2199704832665036e-02   1.1969532063748947e-02   1.2314791290294736e-02   1.2314791290294736e-02   1.1854445755304048e-02   1.1854445755304048e-02   1.1969532063748947e-02   1.2199704832665036e-02   1.2890224257896529e-02   1.2660050939906428e-02   1.3005310978889881e-02   1.3005310978889881e-02   1.2544964345184749e-02   1.2544964345184749e-02   1.2660050939906428e-02   1.2890224257896529e-02   1.3580745161808466e-02   1.3350571377036392e-02   1.3695832107183357e-02   1.3695832107183357e-02   1.3235484539482237e-02   1.3235484539482237e-02   1.3350571377036392e-02   1.3580745161808466e-02   1.4271267329761224e-02   1.4041093144839806e-02   1.4386354467865783e-02   1.4386354467865783e-02   1.3926006099531776e-02   1.3926006099531776e-02   1.4041093144839806e-02   1.4271267329761222e-02   1.4961790586739432e-02   1.4731616056196894e-02   1.5076877891606756e-02   1.5076877891606806e-02   1.4616528831768703e-02   1.4616528831768701e-02   1.4731616056196901e-02   1.4961790586739477e-02   1.5652314788617883e-02   1.5422139957502079e-02   1.5767402238752965e-02   1.5767402238757212e-02   1.5307052577556936e-02   1.5307052577556778e-02   1.5422139957502832e-02   1.5652314788621915e-02   1.6342839816070310e-02   1.6112664721593159e-02   1.6457927394076571e-02   1.6457927394367917e-02   1.5997577205726157e-02   1.5997577205713733e-02   1.6112664721650467e-02   1.6342839816354687e-02   1.7033365595082072e-02   1.6803190249198387e-02   1.7148453317626693e-02   1.7148453334447904e-02   1.6688102611718800e-02   1.6688102610903668e-02   1.6803190252828622e-02   1.7033365611930768e-02   1.7723893363412187e-02   1.7493716825784714e-02   1.7838982748089868e-02   1.7838983576150009e-02   1.7378628973409405e-02   1.7378628928248787e-02   1.7493717020461159e-02   1.7723894213077438e-02   1.8414480200734790e-02   1.8184261395615520e-02   1.8529634812362882e-02   1.8529669989375528e-02   1.8069168768495347e-02   1.8069166628392502e-02   1.8184270347806859e-02   1.8414517118794077e-02   1.9107275016434576e-02   1.8875493522985946e-02   1.9224798068388397e-02   1.9226101640517693e-02   1.8760227281969983e-02   1.8760139515341254e-02   1.8875850582956689e-02   1.9108672291667704e-02   1.9873296939272502e-02   1.9590488431205963e-02   2.0066701368203366e-02   2.0109320445954343e-02   1.9469592835378417e-02   1.9466445357756809e-02   1.9602968641796312e-02   1.9919874403296855e-02   2.2808166877379250e-02   2.1034193848504548e-02   2.5185600849749228e-02   2.6466402288005758e-02   2.0751260320538201e-02   2.0651716063713181e-02   2.1421017039948902e-02   2.4226854284456839e-02   8.5195120841108696e-02   4.3092562625399865e-02   1.4445456317276867e-01   1.8034663503262952e-01   3.8445182187595600e-02   3.5725366157678538e-02   5.3893294913822234e-02   1.2652078219081866e-01   1.5642967314136107e+00   5.8399939236884513e-01   2.9242318879367466e+00   3.7681836525229775e+00   4.7695043816803340e-01   4.1327574514304549e-01   8.4778221829973222e-01   2.5549623756548994e+00   4.6749370495914990e-04   2.4414062500000016e-04   5.8117093331240695e-04   5.8117093331240695e-04   1.4095465556387371e-04   1.4095465556387371e-04   2.4414062500000016e-04   4.6749370495914990e-04   1.1537635806280794e-03   9.2430148857426382e-04   1.2685919000748622e-03   1.2685919000748622e-03   8.0972284920786204e-04   8.0972284920786204e-04   9.2430148857426382e-04   1.1537635806280794e-03   1.8432212976735242e-03   1.6132997722655455e-03   1.9582046574733031e-03   1.9582046574733031e-03   1.4983685416277656e-03   1.4983685416277656e-03   1.6132997722655455e-03   1.8432212976735242e-03   2.5332653672319972e-03   2.3032180498185084e-03   2.6482975415483383e-03   2.6482975415483383e-03   2.1882046972247333e-03   2.1882046972247333e-03   2.3032180498185084e-03   2.5332653672319972e-03   3.2235192578675739e-03   2.9934202730712138e-03   3.3385728347600963e-03   3.3385728347600963e-03   2.8783755182010757e-03   2.8783755182010757e-03   2.9934202730712138e-03   3.2235192578675739e-03   3.9138719584671409e-03   3.6837468417175402e-03   4.0289367820594314e-03   4.0289367820594314e-03   3.5686868407032416e-03   3.5686868407032416e-03   3.6837468417175402e-03   3.9138719584671409e-03   4.6042790233774894e-03   4.3741388835861648e-03   4.7193504776686162e-03   4.7193504776686162e-03   4.2590703476984163e-03   4.2590703476984163e-03   4.3741388835861648e-03   4.6042790233774894e-03   5.2947191860719840e-03   5.0645696232101637e-03   5.4097948745508682e-03   5.4097948745508682e-03   4.9494958331819600e-03   4.9494958331819600e-03   5.0645696232101637e-03   5.2947191860719840e-03   5.9851809922515983e-03   5.7550251328896997e-03   6.1002595481478433e-03   6.1002595481478433e-03   5.6399478805334285e-03   5.6399478805334285e-03   5.7550251328896997e-03   5.9851809922515983e-03   6.6756577261770341e-03   6.4454974523652812e-03   6.7907383134109415e-03   6.7907383134109415e-03   6.3304177985333398e-03   6.3304177985333398e-03   6.4454974523652812e-03   6.6756577261770341e-03   7.3661451900251520e-03   7.1359817021282232e-03   7.4812272685764519e-03   7.4812272685764519e-03   7.0209003147209065e-03   7.0209003147209065e-03   7.1359817021282232e-03   7.3661451900251520e-03   8.0566406250000052e-03   7.8264747245599987e-03   8.1717238305857327e-03   8.1717238305857327e-03   7.7113920449497844e-03   7.7113920449497844e-03   7.8264747245599987e-03   8.0566406250000052e-03   8.7471421433904083e-03   8.5169743859923926e-03   8.8622262213870293e-03   8.8622262213870293e-03   8.4018907175104178e-03   8.4018907175104178e-03   8.5169743859923926e-03   8.7471421433904083e-03   9.4376484099249463e-03   9.2074791927829365e-03   9.5527331770087244e-03   9.5527331770087244e-03   9.0923947507500422e-03   9.0923947507500422e-03   9.2074791927829365e-03   9.4376484099249463e-03   1.0128158453462674e-02   9.8979880680781385e-03   1.0243243774294001e-02   1.0243243774294001e-02   9.7829030095545940e-03   9.7829030095545940e-03   9.8979880680781385e-03   1.0128158453462674e-02   1.0818671550793205e-02   1.0588500215918681e-02   1.0933757323285928e-02   1.0933757323285928e-02   1.0473414658154429e-02   1.0473414658154429e-02   1.0588500215918681e-02   1.0818671550793205e-02   1.1509187152264200e-02   1.1279015035259460e-02   1.1624273297966232e-02   1.1624273297966232e-02   1.1163929067552427e-02   1.1163929067552427e-02   1.1279015035259460e-02   1.1509187152264200e-02   1.2199704832665036e-02   1.1969532063748947e-02   1.2314791290294736e-02   1.2314791290294736e-02   1.1854445755304048e-02   1.1854445755304048e-02   1.1969532063748947e-02   1.2199704832665036e-02   1.2890224257896529e-02   1.2660050939906428e-02   1.3005310978889881e-02   1.3005310978889881e-02   1.2544964345184749e-02   1.2544964345184749e-02   1.2660050939906428e-02   1.2890224257896529e-02   1.3580745161808466e-02   1.3350571377036392e-02   1.3695832107183357e-02   1.3695832107183357e-02   1.3235484539482237e-02   1.3235484539482237e-02   1.3350571377036392e-02   1.3580745161808466e-02   1.4271267329761222e-02   1.4041093144839806e-02   1.4386354467865783e-02   1.4386354467865783e-02   1.3926006099531776e-02   1.3926006099531776e-02   1.4041093144839806e-02   1.4271267329761226e-02   1.4961790586739495e-02   1.4731616056196908e-02   1.5076877891606884e-02   1.5076877891606933e-02   1.4616528831768708e-02   1.4616528831768706e-02   1.4731616056196915e-02   1.4961790586739540e-02   1.5652314788623296e-02   1.5422139957503295e-02   1.5767402238763713e-02   1.5767402238767665e-02   1.5307052577557512e-02   1.5307052577557368e-02   1.5422139957503998e-02   1.5652314788627050e-02   1.6342839816454000e-02   1.6112664721685193e-02   1.6457927394817960e-02   1.6457927395089219e-02   1.5997577205771156e-02   1.5997577205759592e-02   1.6112664721738550e-02   1.6342839816718763e-02   1.7033365617909059e-02   1.6803190255010859e-02   1.7148453360633500e-02   1.7148453376294632e-02   1.6688102614635929e-02   1.6688102613877015e-02   1.6803190258390738e-02   1.7033365633595775e-02   1.7723894518927277e-02   1.7493717136614913e-02   1.7838984874534992e-02   1.7838985645487564e-02   1.7378629133235141e-02   1.7378629091189052e-02   1.7493717317865393e-02   1.7723895309994939e-02   1.8414530583431381e-02   1.8184275651978180e-02   1.8529725519983688e-02   1.8529758271033085e-02   1.8069176266315861e-02   1.8069174273806332e-02   1.8184283986777607e-02   1.8414564955448021e-02   1.9109188027176933e-02   1.8876060765285127e-02   1.9228172457224250e-02   1.9229386175476492e-02   1.8760531960058374e-02   1.8760450246332654e-02   1.8876393201255171e-02   1.9110488977880393e-02   1.9937228688465137e-02   1.9610272620879457e-02   2.0177357501196924e-02   2.0217082982294736e-02   1.9480430664415627e-02   1.9477500300919288e-02   1.9621893007497480e-02   1.9980632665419565e-02   2.4740690145777552e-02   2.1648090795191657e-02   2.8473512944563573e-02   2.9683851687868523e-02   2.1093876147311903e-02   2.1001253678196056e-02   2.2008831165957199e-02   2.6081156427365890e-02   1.3916598715426434e-01   6.0660522915082359e-02   2.3251290210144759e-01   2.6611751385341464e-01   4.8579446908126982e-02   4.6082542356747080e-02   7.0715111087892177e-02   1.7792056329803760e-01   2.8506388033835242e+00   1.0187840157562649e+00   4.9871270152087623e+00   5.7749649641353926e+00   7.3526265573307015e-01   6.7610016550219265e-01   1.2648308064803910e+00   3.7746875033864717e+00   4.6749370495914990e-04   2.4414062500000016e-04   5.8117093331240695e-04   5.8117093331240695e-04   1.4095465556387371e-04   1.4095465556387371e-04   2.4414062500000016e-04   4.6749370495914990e-04   1.1537635806280794e-03   9.2430148857426382e-04   1.2685919000748622e-03   1.2685919000748622e-03   8.0972284920786204e-04   8.0972284920786204e-04   9.2430148857426382e-04   1.1537635806280794e-03   1.8432212976735242e-03   1.6132997722655455e-03   1.9582046574733031e-03   1.9582046574733031e-03   1.4983685416277656e-03   1.4983685416277656e-03   1.6132997722655455e-03   1.8432212976735242e-03   2.5332653672319972e-03   2.3032180498185084e-03   2.6482975415483383e-03   2.6482975415483383e-