<?xml version="1.0"?>
<VTKFile type="UnstructuredGrid"  version="0.1"  >
<UnstructuredGrid>
<Piece  NumberOfPoints="4225" NumberOfCells="8192">
<Points>
<DataArray  type="Float64"  NumberOfComponents="3"  format="ascii">0 0 0  0.03125 0 0  0.0625 0 0  0.09375 0 0  0.125 0 0  0.15625 0 0  0.1875 0 0  0.21875 0 0  0.25 0 0  0.28125 0 0  0.3125 0 0  0.34375 0 0  0.375 0 0  0.40625 0 0  0.4375 0 0  0.46875 0 0  0.5 0 0  0.53125 0 0  0.5625 0 0  0.59375 0 0  0.625 0 0  0.65625 0 0  0.6875 0 0  0.71875 0 0  0.75 0 0  0.78125 0 0  0.8125 0 0  0.84375 0 0  0.875 0 0  0.90625 0 0  0.9375 0 0  0.96875 0 0  1 0 0  0 0.03125 0  0.03125 0.03125 0  0.0625 0.03125 0  0.09375 0.03125 0  0.125 0.03125 0  0.15625 0.03125 0  0.1875 0.03125 0  0.21875 0.03125 0  0.25 0.03125 0  0.28125 0.03125 0  0.3125 0.03125 0  0.34375 0.03125 0  0.375 0.03125 0  0.40625 0.03125 0  0.4375 0.03125 0  0.46875 0.03125 0  0.5 0.03125 0  0.53125 0.03125 0  0.5625 0.03125 0  0.59375 0.03125 0  0.625 0.03125 0  0.65625 0.03125 0  0.6875 0.03125 0  0.71875 0.03125 0  0.75 0.03125 0  0.78125 0.03125 0  0.8125 0.03125 0  0.84375 0.03125 0  0.875 0.03125 0  0.90625 0.03125 0  0.9375 0.03125 0  0.96875 0.03125 0  1 0.03125 0  0 0.0625 0  0.03125 0.0625 0  0.0625 0.0625 0  0.09375 0.0625 0  0.125 0.0625 0  0.15625 0.0625 0  0.1875 0.0625 0  0.21875 0.0625 0  0.25 0.0625 0  0.28125 0.0625 0  0.3125 0.0625 0  0.34375 0.0625 0  0.375 0.0625 0  0.40625 0.0625 0  0.4375 0.0625 0  0.46875 0.0625 0  0.5 0.0625 0  0.53125 0.0625 0  0.5625 0.0625 0  0.59375 0.0625 0  0.625 0.0625 0  0.65625 0.0625 0  0.6875 0.0625 0  0.71875 0.0625 0  0.75 0.0625 0  0.78125 0.0625 0  0.8125 0.0625 0  0.84375 0.0625 0  0.875 0.0625 0  0.90625 0.0625 0  0.9375 0.0625 0  0.96875 0.0625 0  1 0.0625 0  0 0.09375 0  0.03125 0.09375 0  0.0625 0.09375 0  0.09375 0.09375 0  0.125 0.09375 0  0.15625 0.09375 0  0.1875 0.09375 0  0.21875 0.09375 0  0.25 0.09375 0  0.28125 0.09375 0  0.3125 0.09375 0  0.34375 0.09375 0  0.375 0.09375 0  0.40625 0.09375 0  0.4375 0.09375 0  0.46875 0.09375 0  0.5 0.09375 0  0.53125 0.09375 0  0.5625 0.09375 0  0.59375 0.09375 0  0.625 0.09375 0  0.65625 0.09375 0  0.6875 0.09375 0  0.71875 0.09375 0  0.75 0.09375 0  0.78125 0.09375 0  0.8125 0.09375 0  0.84375 0.09375 0  0.875 0.09375 0  0.90625 0.09375 0  0.9375 0.09375 0  0.96875 0.09375 0  1 0.09375 0  0 0.125 0  0.03125 0.125 0  0.0625 0.125 0  0.09375 0.125 0  0.125 0.125 0  0.15625 0.125 0  0.1875 0.125 0  0.21875 0.125 0  0.25 0.125 0  0.28125 0.125 0  0.3125 0.125 0  0.34375 0.125 0  0.375 0.125 0  0.40625 0.125 0  0.4375 0.125 0  0.46875 0.125 0  0.5 0.125 0  0.53125 0.125 0  0.5625 0.125 0  0.59375 0.125 0  0.625 0.125 0  0.65625 0.125 0  0.6875 0.125 0  0.71875 0.125 0  0.75 0.125 0  0.78125 0.125 0  0.8125 0.125 0  0.84375 0.125 0  0.875 0.125 0  0.90625 0.125 0  0.9375 0.125 0  0.96875 0.125 0  1 0.125 0  0 0.15625 0  0.03125 0.15625 0  0.0625 0.15625 0  0.09375 0.15625 0  0.125 0.15625 0  0.15625 0.15625 0  0.1875 0.15625 0  0.21875 0.15625 0  0.25 0.15625 0  0.28125 0.15625 0  0.3125 0.15625 0  0.34375 0.15625 0  0.375 0.15625 0  0.40625 0.15625 0  0.4375 0.15625 0  0.46875 0.15625 0  0.5 0.15625 0  0.53125 0.15625 0  0.5625 0.15625 0  0.59375 0.15625 0  0.625 0.15625 0  0.65625 0.15625 0  0.6875 0.15625 0  0.71875 0.15625 0  0.75 0.15625 0  0.78125 0.15625 0  0.8125 0.15625 0  0.84375 0.15625 0  0.875 0.15625 0  0.90625 0.15625 0  0.9375 0.15625 0  0.96875 0.15625 0  1 0.15625 0  0 0.1875 0  0.03125 0.1875 0  0.0625 0.1875 0  0.09375 0.1875 0  0.125 0.1875 0  0.15625 0.1875 0  0.1875 0.1875 0  0.21875 0.1875 0  0.25 0.1875 0  0.28125 0.1875 0  0.3125 0.1875 0  0.34375 0.1875 0  0.375 0.1875 0  0.40625 0.1875 0  0.4375 0.1875 0  0.46875 0.1875 0  0.5 0.1875 0  0.53125 0.1875 0  0.5625 0.1875 0  0.59375 0.1875 0  0.625 0.1875 0  0.65625 0.1875 0  0.6875 0.1875 0  0.71875 0.1875 0  0.75 0.1875 0  0.78125 0.1875 0  0.8125 0.1875 0  0.84375 0.1875 0  0.875 0.1875 0  0.90625 0.1875 0  0.9375 0.1875 0  0.96875 0.1875 0  1 0.1875 0  0 0.21875 0  0.03125 0.21875 0  0.0625 0.21875 0  0.09375 0.21875 0  0.125 0.21875 0  0.15625 0.21875 0  0.1875 0.21875 0  0.21875 0.21875 0  0.25 0.21875 0  0.28125 0.21875 0  0.3125 0.21875 0  0.34375 0.21875 0  0.375 0.21875 0  0.40625 0.21875 0  0.4375 0.21875 0  0.46875 0.21875 0  0.5 0.21875 0  0.53125 0.21875 0  0.5625 0.21875 0  0.59375 0.21875 0  0.625 0.21875 0  0.65625 0.21875 0  0.6875 0.21875 0  0.71875 0.21875 0  0.75 0.21875 0  0.78125 0.21875 0  0.8125 0.21875 0  0.84375 0.21875 0  0.875 0.21875 0  0.90625 0.21875 0  0.9375 0.21875 0  0.96875 0.21875 0  1 0.21875 0  0 0.25 0  0.03125 0.25 0  0.0625 0.25 0  0.09375 0.25 0  0.125 0.25 0  0.15625 0.25 0  0.1875 0.25 0  0.21875 0.25 0  0.25 0.25 0  0.28125 0.25 0  0.3125 0.25 0  0.34375 0.25 0  0.375 0.25 0  0.40625 0.25 0  0.4375 0.25 0  0.46875 0.25 0  0.5 0.25 0  0.53125 0.25 0  0.5625 0.25 0  0.59375 0.25 0  0.625 0.25 0  0.65625 0.25 0  0.6875 0.25 0  0.71875 0.25 0  0.75 0.25 0  0.78125 0.25 0  0.8125 0.25 0  0.84375 0.25 0  0.875 0.25 0  0.90625 0.25 0  0.9375 0.25 0  0.96875 0.25 0  1 0.25 0  0 0.28125 0  0.03125 0.28125 0  0.0625 0.28125 0  0.09375 0.28125 0  0.125 0.28125 0  0.15625 0.28125 0  0.1875 0.28125 0  0.21875 0.28125 0  0.25 0.28125 0  0.28125 0.28125 0  0.3125 0.28125 0  0.34375 0.28125 0  0.375 0.28125 0  0.40625 0.28125 0  0.4375 0.28125 0  0.46875 0.28125 0  0.5 0.28125 0  0.53125 0.28125 0  0.5625 0.28125 0  0.59375 0.28125 0  0.625 0.28125 0  0.65625 0.28125 0  0.6875 0.28125 0  0.71875 0.28125 0  0.75 0.28125 0  0.78125 0.28125 0  0.8125 0.28125 0  0.84375 0.28125 0  0.875 0.28125 0  0.90625 0.28125 0  0.9375 0.28125 0  0.96875 0.28125 0  1 0.28125 0  0 0.3125 0  0.03125 0.3125 0  0.0625 0.3125 0  0.09375 0.3125 0  0.125 0.3125 0  0.15625 0.3125 0  0.1875 0.3125 0  0.21875 0.3125 0  0.25 0.3125 0  0.28125 0.3125 0  0.3125 0.3125 0  0.34375 0.3125 0  0.375 0.3125 0  0.40625 0.3125 0  0.4375 0.3125 0  0.46875 0.3125 0  0.5 0.3125 0  0.53125 0.3125 0  0.5625 0.3125 0  0.59375 0.3125 0  0.625 0.3125 0  0.65625 0.3125 0  0.6875 0.3125 0  0.71875 0.3125 0  0.75 0.3125 0  0.78125 0.3125 0  0.8125 0.3125 0  0.84375 0.3125 0  0.875 0.3125 0  0.90625 0.3125 0  0.9375 0.3125 0  0.96875 0.3125 0  1 0.3125 0  0 0.34375 0  0.03125 0.34375 0  0.0625 0.34375 0  0.09375 0.34375 0  0.125 0.34375 0  0.15625 0.34375 0  0.1875 0.34375 0  0.21875 0.34375 0  0.25 0.34375 0  0.28125 0.34375 0  0.3125 0.34375 0  0.34375 0.34375 0  0.375 0.34375 0  0.40625 0.34375 0  0.4375 0.34375 0  0.46875 0.34375 0  0.5 0.34375 0  0.53125 0.34375 0  0.5625 0.34375 0  0.59375 0.34375 0  0.625 0.34375 0  0.65625 0.34375 0  0.6875 0.34375 0  0.71875 0.34375 0  0.75 0.34375 0  0.78125 0.34375 0  0.8125 0.34375 0  0.84375 0.34375 0  0.875 0.34375 0  0.90625 0.34375 0  0.9375 0.34375 0  0.96875 0.34375 0  1 0.34375 0  0 0.375 0  0.03125 0.375 0  0.0625 0.375 0  0.09375 0.375 0  0.125 0.375 0  0.15625 0.375 0  0.1875 0.375 0  0.21875 0.375 0  0.25 0.375 0  0.28125 0.375 0  0.3125 0.375 0  0.34375 0.375 0  0.375 0.375 0  0.40625 0.375 0  0.4375 0.375 0  0.46875 0.375 0  0.5 0.375 0  0.53125 0.375 0  0.5625 0.375 0  0.59375 0.375 0  0.625 0.375 0  0.65625 0.375 0  0.6875 0.375 0  0.71875 0.375 0  0.75 0.375 0  0.78125 0.375 0  0.8125 0.375 0  0.84375 0.375 0  0.875 0.375 0  0.90625 0.375 0  0.9375 0.375 0  0.96875 0.375 0  1 0.375 0  0 0.40625 0  0.03125 0.40625 0  0.0625 0.40625 0  0.09375 0.40625 0  0.125 0.40625 0  0.15625 0.40625 0  0.1875 0.40625 0  0.21875 0.40625 0  0.25 0.40625 0  0.28125 0.40625 0  0.3125 0.40625 0  0.34375 0.40625 0  0.375 0.40625 0  0.40625 0.40625 0  0.4375 0.40625 0  0.46875 0.40625 0  0.5 0.40625 0  0.53125 0.40625 0  0.5625 0.40625 0  0.59375 0.40625 0  0.625 0.40625 0  0.65625 0.40625 0  0.6875 0.40625 0  0.71875 0.40625 0  0.75 0.40625 0  0.78125 0.40625 0  0.8125 0.40625 0  0.84375 0.40625 0  0.875 0.40625 0  0.90625 0.40625 0  0.9375 0.40625 0  0.96875 0.40625 0  1 0.40625 0  0 0.4375 0  0.03125 0.4375 0  0.0625 0.4375 0  0.09375 0.4375 0  0.125 0.4375 0  0.15625 0.4375 0  0.1875 0.4375 0  0.21875 0.4375 0  0.25 0.4375 0  0.28125 0.4375 0  0.3125 0.4375 0  0.34375 0.4375 0  0.375 0.4375 0  0.40625 0.4375 0  0.4375 0.4375 0  0.46875 0.4375 0  0.5 0.4375 0  0.53125 0.4375 0  0.5625 0.4375 0  0.59375 0.4375 0  0.625 0.4375 0  0.65625 0.4375 0  0.6875 0.4375 0  0.71875 0.4375 0  0.75 0.4375 0  0.78125 0.4375 0  0.8125 0.4375 0  0.84375 0.4375 0  0.875 0.4375 0  0.90625 0.4375 0  0.9375 0.4375 0  0.96875 0.4375 0  1 0.4375 0  0 0.46875 0  0.03125 0.46875 0  0.0625 0.46875 0  0.09375 0.46875 0  0.125 0.46875 0  0.15625 0.46875 0  0.1875 0.46875 0  0.21875 0.46875 0  0.25 0.46875 0  0.28125 0.46875 0  0.3125 0.46875 0  0.34375 0.46875 0  0.375 0.46875 0  0.40625 0.46875 0  0.4375 0.46875 0  0.46875 0.46875 0  0.5 0.46875 0  0.53125 0.46875 0  0.5625 0.46875 0  0.59375 0.46875 0  0.625 0.46875 0  0.65625 0.46875 0  0.6875 0.46875 0  0.71875 0.46875 0  0.75 0.46875 0  0.78125 0.46875 0  0.8125 0.46875 0  0.84375 0.46875 0  0.875 0.46875 0  0.90625 0.46875 0  0.9375 0.46875 0  0.96875 0.46875 0  1 0.46875 0  0 0.5 0  0.03125 0.5 0  0.0625 0.5 0  0.09375 0.5 0  0.125 0.5 0  0.15625 0.5 0  0.1875 0.5 0  0.21875 0.5 0  0.25 0.5 0  0.28125 0.5 0  0.3125 0.5 0  0.34375 0.5 0  0.375 0.5 0  0.40625 0.5 0  0.4375 0.5 0  0.46875 0.5 0  0.5 0.5 0  0.53125 0.5 0  0.5625 0.5 0  0.59375 0.5 0  0.625 0.5 0  0.65625 0.5 0  0.6875 0.5 0  0.71875 0.5 0  0.75 0.5 0  0.78125 0.5 0  0.8125 0.5 0  0.84375 0.5 0  0.875 0.5 0  0.90625 0.5 0  0.9375 0.5 0  0.96875 0.5 0  1 0.5 0  0 0.53125 0  0.03125 0.53125 0  0.0625 0.53125 0  0.09375 0.53125 0  0.125 0.53125 0  0.15625 0.53125 0  0.1875 0.53125 0  0.21875 0.53125 0  0.25 0.53125 0  0.28125 0.53125 0  0.3125 0.53125 0  0.34375 0.53125 0  0.375 0.53125 0  0.40625 0.53125 0  0.4375 0.53125 0  0.46875 0.53125 0  0.5 0.53125 0  0.53125 0.53125 0  0.5625 0.53125 0  0.59375 0.53125 0  0.625 0.53125 0  0.65625 0.53125 0  0.6875 0.53125 0  0.71875 0.53125 0  0.75 0.53125 0  0.78125 
[...]
<PointData  Scalars="f_103"> 
<DataArray  type="Float64"  Name="f_103"  format="ascii">0.0000000000000000e+00  6.2500000000000000e-02  1.2500000000000000e-01  1.8750000000000000e-01  2.5000000000000000e-01  3.1250000000000000e-01  3.7500000000000000e-01  4.3750000000000000e-01  5.0000000000000000e-01  5.6250000000000000e-01  6.2500000000000000e-01  6.8750000000000000e-01  7.5000000000000000e-01  8.1250000000000000e-01  8.7500000000000000e-01  9.3750000000000000e-01  1.0000000000000000e+00  1.0625000000000000e+00  1.1250000000000000e+00  1.1875000000000000e+00  1.2500000000000000e+00  1.3125000000000000e+00  1.3750000000000000e+00  1.4374999999999936e+00  1.4999999999995188e+00  1.5624999999702955e+00  1.6249999984397638e+00  1.6874999294296347e+00  1.7499972212891881e+00  1.8124038210629241e+00  1.8720479146330977e+00  1.8565133821115809e+00  0.0000000000000000e+00  0.0000000000000000e+00  6.2500000000000000e-02  1.2500000000000000e-01  1.8750000000000000e-01  2.5000000000000000e-01  3.1250000000000000e-01  3.7500000000000000e-01  4.3750000000000000e-01  5.0000000000000000e-01  5.6250000000000000e-01  6.2500000000000000e-01  6.8750000000000000e-01  7.5000000000000000e-01  8.1250000000000000e-01  8.7500000000000000e-01  9.3750000000000000e-01  1.0000000000000000e+00  1.0625000000000000e+00  1.1250000000000000e+00  1.1875000000000000e+00  1.2500000000000000e+00  1.3125000000000002e+00  1.3750000000000238e+00  1.4375000000019282e+00  1.5000000001302707e+00  1.5625000074106927e+00  1.6250003597636782e+00  1.6875150841493671e+00  1.7505520773830865e+00  1.8303072843200716e+00  2.3855467637314702e+00  1.5049494683289543e+01  3.0576171875000000e+02  0.0000000000000000e+00  6.2500000000000000e-02  1.2500000000000000e-01  1.8750000000000000e-01  2.5000000000000000e-01  3.1250000000000000e-01  3.7500000000000000e-01  4.3750000000000000e-01  5.0000000000000000e-01  5.6250000000000000e-01  6.2500000000000000e-01  6.8750000000000000e-01  7.5000000000000000e-01  8.1250000000000000e-01  8.7500000000000000e-01  9.3750000000000000e-01  1.0000000000000000e+00  1.0625000000000000e+00  1.1250000000000000e+00  1.1875000000000000e+00  1.2500000000000000e+00  1.3125000000000004e+00  1.3750000000000460e+00  1.4375000000037379e+00  1.5000000002525871e+00  1.5625000143710641e+00  1.6250006977763722e+00  1.6875292611452459e+00  1.7510711363096365e+00  1.8470556854315967e+00  2.8659166548234962e+00  2.7391315900520539e+01  5.9179687500000000e+02  0.0000000000000000e+00  6.2500000000000000e-02  1.2500000000000000e-01  1.8750000000000000e-01  2.5000000000000000e-01  3.1250000000000000e-01  3.7500000000000000e-01  4.3750000000000000e-01  5.0000000000000000e-01  5.6250000000000000e-01  6.2500000000000000e-01  6.8750000000000000e-01  7.5000000000000000e-01  8.1250000000000000e-01  8.7500000000000000e-01  9.3750000000000000e-01  1.0000000000000000e+00  1.0625000000000000e+00  1.1250000000000000e+00  1.1875000000000000e+00  1.2500000000000000e+00  1.3125000000000007e+00  1.3750000000000666e+00  1.4375000000054230e+00  1.5000000003664680e+00  1.5625000208514099e+00  1.6250010124778460e+00  1.6875424604172709e+00  1.7515543980688382e+00  1.8626490243974996e+00  3.3131575879091759e+00  3.8881977033804574e+01  8.5810546875000000e+02  0.0000000000000000e+00  6.2500000000000000e-02  1.2500000000000000e-01  1.8750000000000000e-01  2.5000000000000000e-01  3.1250000000000000e-01  3.7500000000000000e-01  4.3750000000000000e-01  5.0000000000000000e-01  5.6250000000000000e-01  6.2500000000000000e-01  6.8750000000000000e-01  7.5000000000000000e-01  8.1250000000000000e-01  8.7500000000000000e-01  9.3750000000000000e-01  1.0000000000000000e+00  1.0625000000000000e+00  1.1250000000000000e+00  1.1875000000000000e+00  1.2500000000000000e+00  1.3125000000000009e+00  1.3750000000000857e+00  1.4375000000069831e+00  1.5000000004719130e+00  1.5625000268517304e+00  1.6250013038680995e+00  1.6875546819654423e+00  1.7520018626606917e+00  1.8770873012177798e+00  3.7272695629885080e+00  4.9521478083141638e+01  1.1046875000000000e+03  0.0000000000000000e+00  6.2500000000000000e-02  1.2500000000000000e-01  1.8750000000000000e-01  2.5000000000000000e-01  3.1250000000000000e-01  3.7500000000000000e-01  4.3750000000000000e-01  5.0000000000000000e-01  5.6250000000000000e-01  6.2500000000000000e-01  6.8750000000000000e-01  7.5000000000000000e-01  8.1250000000000000e-01  8.7500000000000000e-01  9.3750000000000000e-01  1.0000000000000000e+00  1.0625000000000000e+00  1.1250000000000000e+00  1.1875000000000000e+00  1.2500000000000000e+00  1.3125000000000011e+00  1.3750000000001033e+00  1.4375000000084184e+00  1.5000000005689225e+00  1.5625000323720248e+00  1.6250015719471327e+00  1.6875659257897599e+00  1.7524135300851968e+00  1.8903705158924378e+00  4.1082525800614942e+00  5.9309819048531736e+01  1.3315429687500000e+03  0.0000000000000000e+00  6.2500000000000000e-02  1.2500000000000000e-01  1.8750000000000000e-01  2.5000000000000000e-01  3.1250000000000000e-01  3.7500000000000000e-01  4.3750000000000000e-01  5.0000000000000000e-01  5.6250000000000000e-01  6.2500000000000000e-01  6.8750000000000000e-01  7.5000000000000000e-01  8.1250000000000000e-01  8.7500000000000000e-01  9.3750000000000000e-01  1.0000000000000000e+00  1.0625000000000000e+00  1.1250000000000000e+00  1.1875000000000000e+00  1.2500000000000000e+00  1.3125000000000011e+00  1.3750000000001195e+00  1.4375000000097289e+00  1.5000000006574965e+00  1.5625000374122939e+00  1.6250018167149456e+00  1.6875761918902239e+00  1.7527894003423539e+00  1.9024986684214731e+00  4.4561066391281337e+00  6.8246999929974891e+01  1.5386718750000000e+03  0.0000000000000000e+00  6.2500000000000000e-02  1.2500000000000000e-01  1.8750000000000000e-01  2.5000000000000000e-01  3.1250000000000000e-01  3.7500000000000000e-01  4.3750000000000000e-01  5.0000000000000000e-01  5.6250000000000000e-01  6.2500000000000000e-01  6.8750000000000000e-01  7.5000000000000000e-01  8.1250000000000000e-01  8.7500000000000000e-01  9.3750000000000000e-01  1.0000000000000000e+00  1.0625000000000000e+00  1.1250000000000000e+00  1.1875000000000000e+00  1.2500000000000000e+00  1.3125000000000013e+00  1.3750000000001339e+00  1.4375000000109146e+00  1.5000000007376346e+00  1.5625000419725372e+00  1.6250020381715382e+00  1.6875854802668340e+00  1.7531294734321625e+00  1.9134717588048862e+00  4.7708317401884264e+00  7.6333020727471052e+01  1.7260742187500000e+03  0.0000000000000000e+00  6.2500000000000000e-02  1.2500000000000000e-01  1.8750000000000000e-01  2.5000000000000000e-01  3.1250000000000000e-01  3.7500000000000000e-01  4.3750000000000000e-01  5.0000000000000000e-01  5.6250000000000000e-01  6.2500000000000000e-01  6.8750000000000000e-01  7.5000000000000000e-01  8.1250000000000000e-01  8.7500000000000000e-01  9.3750000000000000e-01  1.0000000000000000e+00  1.0625000000000000e+00  1.1250000000000000e+00  1.1875000000000000e+00  1.2500000000000000e+00  1.3125000000000016e+00  1.3750000000001470e+00  1.4375000000119755e+00  1.5000000008093375e+00  1.5625000460527552e+00  1.6250022363169105e+00  1.6875937909195906e+00  1.7534337493546228e+00  1.9232897870426768e+00  5.0524278832423732e+00  8.3567881441020262e+01  1.8937500000000000e+03  0.0000000000000000e+00  6.2500000000000000e-02  1.2500000000000000e-01  1.8750000000000000e-01  2.5000000000000000e-01  3.1250000000000000e-01  3.7500000000000000e-01  4.3750000000000000e-01  5.0000000000000000e-01  5.6250000000000000e-01  6.2500000000000000e-01  6.8750000000000000e-01  7.5000000000000000e-01  8.1250000000000000e-01  8.7500000000000000e-01  9.3750000000000000e-01  1.0000000000000000e+00  1.0625000000000000e+00  1.1250000000000000e+00  1.1875000000000000e+00  1.2500000000000000e+00  1.3125000000000016e+00  1.3750000000001585e+00  1.4375000000129117e+00  1.5000000008726044e+00  1.5625000496529473e+00  1.6250024111510626e+00  1.6876011238484934e+00  1.7537022281097350e+00  1.9319527531348450e+00  5.3008950682899725e+00  8.9951582070622493e+01  2.0416992187500000e+03  0.0000000000000000e+00  6.2500000000000000e-02  1.2500000000000000e-01  1.8750000000000000e-01  2.5000000000000000e-01  3.1250000000000000e-01  3.7500000000000000e-01  4.3750000000000000e-01  5.0000000000000000e-01  5.6250000000000000e-01  6.2500000000000000e-01  6.8750000000000000e-01  7.5000000000000000e-01  8.1250000000000000e-01  8.7500000000000000e-01  9.3750000000000000e-01  1.0000000000000000e+00  1.0625000000000000e+00  1.1250000000000000e+00  1.1875000000000000e+00  1.2500000000000000e+00  1.3125000000000018e+00  1.3750000000001685e+00  1.4375000000137230e+00  1.5000000009274359e+00  1.5625000527731139e+00  1.6250025626739946e+00  1.6876074790535425e+00  1.7539349096974988e+00  1.9394606570813906e+00  5.5162332953312259e+00  9.5484122616277759e+01  2.1699218750000000e+03  0.0000000000000000e+00  6.2500000000000000e-02  1.2500000000000000e-01  1.8750000000000000e-01  2.5000000000000000e-01  3.1250000000000000e-01  3.7500000000000000e-01  4.3750000000000000e-01  5.0000000000000000e-01  5.6250000000000000e-01  6.2500000000000000e-01  6.8750000000000000e-01  7.5000000000000000e-01  8.1250000000000000e-01  8.7500000000000000e-01  9.3750000000000000e-01  1.0000000000000000e+00  1.0625000000000000e+00  1.1250000000000000e+00  1.1875000000000000e+00  1.2500000000000000e+00  1.3125000000000018e+00  1.3750000000001770e+00  1.4375000000144094e+00  1.5000000009738317e+00  1.5625000554132547e+00  1.6250026908857060e+00  1.6876128565347379e+00  1.7541317941179142e+00  1.9458134988823141e+00  5.6984425643661316e+00  1.0016550307798607e+02  2.2784179687500000e+03  0.0000000000000000e+00  6.2500000000000000e-02  1.2500000000000000e-01  1.8750000000000000e-01  2.5000000000000000e-01  3.1250000000000000e-01  3.7500000000000000e-01  4.3750000000000000e-01  5.0000000000000000e-01  5.6250000000000000e-01  6.2500000000000000e-01  6.8750000000000000e-01  7.5000000000000000e-01  8.1250000000000000e-01  8.7500000000000000e-01  9.3750000000000000e-01  1.0000000000000000e+00  1.0625000000000000e+00  1.1250000000000000e+00  1.1875000000000000e+00  1.2500000000000000e+00  1.3125000000000018e+00  1.3750000000001839e+00  1.4375000000149711e+00  1.5000000010117920e+00  1.5625000575733701e+00  1.6250027957861972e+00  1.6876172562920795e+00  1.7542928813709815e+00  1.9510112785376150e+00  5.8475228753946915e+00  1.0399572345574742e+02  2.3671875000000000e+03  0.0000000000000000e+00  6.2500000000000000e-02  1.2500000000000000e-01  1.8750000000000000e-01  2.5000000000000000e-01  3.1250000000000000e-01  3.7500000000000000e-01  4.3750000000000000e-01  5.0000000000000000e-01  5.6250000000000000e-01  6.2500000000000000e-01  6.8750000000000000e-01  7.5000000000000000e-01  8.1250000000000000e-01  8.7500000000000000e-01  9.3750000000000000e-01  1.0000000000000000e+00  1.0625000000000000e+00  1.1250000000000000e+00  1.1875000000000000e+00  1.2500000000000000e+00  1.3125000000000020e+00  1.3750000000001892e+00  1.4375000000154079e+00  1.5000000010413166e+00  1.5625000592534597e+00  1.6250028773754683e+00  1.6876206783255676e+00  1.7544181714567004e+00  1.9550539960472935e+00  5.9634742284169047e+00  1.0697478374956181e+02  2.4362304687500000e+03  0.0000000000000000e+00  6.2500000000000000e-02  1.2500000000000000e-01  1.8750000000000000e-01  2.5000000000000000e-01  3.1250000000000000e-01  3.7500000000000000e-01  4.3750000000000000e-01  5.0000000000000000e-01  5.6250000000000000e-01  6.2500000000000000e-01  6.8750000000000000e-01  7.5000000000000000e-01  8.1250000000000000e-01  8.7500000000000000e-01  9.3750000000000000e-01  1.0000000000000000e+00  1.0625000000000000e+00  1.1250000000000000e+00  1.1875000000000000e+00  1.2500000000000000e+00  1.3125000000000020e+00  1.3750000000001930e+00  1.4375000000157199e+00  1.5000000010624057e+00  1.5625000604535237e+00  1.6250029356535189e+00  1.6876231226352019e+00  1.7545076643750712e+00  1.9579416514113495e+00  6.0462966234327711e+00  1.0910268395942921e+02  2.4855468750000000e+03  0.0000000000000000e+00  6.2500000000000000e-02  1.2500000000000000e-01  1.8750000000000000e-01  2.5000000000000000e-01  3.1250000000000000e-01  3.7500000000000000e-01  4.3750000000000000e-01  5.0000000000000000e-01  5.6250000000000000e-01  6.2500000000000000e-01  6.8750000000000000e-01  7.5000000000000000e-01  8.1250000000000000e-01  8.7500000000000000e-01  9.3750000000000000e-01  1.0000000000000000e+00  1.0625000000000000e+00  1.1250000000000000e+00  1.1875000000000000e+00  1.2500000000000000e+00  1.3125000000000020e+00  1.3750000000001952e+00  1.4375000000159073e+00  1.5000000010750592e+00  1.5625000611735622e+00  1.6250029706203495e+00  1.6876245892209825e+00  1.7545613601260934e+00  1.9596742446297832e+00  6.0959900604422907e+00  1.1037942408534967e+02  2.5151367187500000e+03  0.0000000000000000e+00  6.2500000000000000e-02  1.2500000000000000e-01  1.8750000000000000e-01  2.5000000000000000e-01  3.1250000000000000e-01  3.7500000000000000e-01  4.3750000000000000e-01  5.0000000000000000e-01  5.6250000000000000e-01  6.2500000000000000e-01  6.8750000000000000e-01  7.5000000000000000e-01  8.1250000000000000e-01  8.7500000000000000e-01  9.3750000000000000e-01  1.0000000000000000e+00  1.0625000000000000e+00  1.1250000000000000e+00  1.1875000000000000e+00  1.2500000000000000e+00  1.3125000000000020e+00  1.3750000000001961e+00  1.4375000000159697e+00  1.5000000010792769e+00  1.5625000614135749e+00  1.6250029822759595e+00  1.6876250780829092e+00  1.7545792587097677e+00  1.9602517757025943e+00  6.1125545394454646e+00  1.1080500412732314e+02  2.5250000000000000e+03  0.0000000000000000e+00  6.2500000000000000e-02  1.2500000000000000e-01  1.8750000000000000e-01  2.5000000000000000e-01  3.1250000000000000e-01  3.7500000000000000e-01  4.3750000000000000e-01  5.0000000000000000e-01  5.6250000000000000e-01  6.2500000000000000e-01  6.8750000000000000e-01  7.5000000000000000e-01  8.1250000000000000e-01  8.7500000000000000e-01  9.3750000000000000e-01  1.0000000000000000e+00  1.0625000000000000e+00  1.1250000000000000e+00  1.1875000000000000e+00  1.2500000000000000e+00  1.3125000000000020e+00  1.3750000000001952e+00  1.4375000000159073e+00  1.5000000010750592e+00  1.5625000611735622e+00  1.6250029706203495e+00  1.6876245892209825e+00  1.7545613601260934e+00  1.9596742446297832e+00  6.0959900604422916e+00  1.1037942408534965e+02  2.5151367187500000e+03  0.0000000000000000e+00  6.2500000000000000e-02  1.2500000000000000e-01  1.8750000000000000e-01  2.5000000000000000e-01  3.1250000000000000e-01  3.7500000000000000e-01  4.3750000000000000e-01  5.0000000000000000e-01  5.6250000000000000e-01  6.2500000000000000e-01  6.8750000000000000e-01  7.5000000000000000e-01  8.1250000000000000e-01  8.7500000000000000e-01  9.3750000000000000e-01  1.0000000000000000e+00  1.0625000000000000e+00  1.1250000000000000e+00  1.1875000000000000e+00  1.2500000000000000e+00  1.3125000000000020e+00  1.3750000000001930e+00  1.4375000000157199e+00  1.5000000010624057e+00  1.5625000604535237e+00  1.6250029356535189e+00  1.6876231226352019e+00  1.7545076643750712e+00  1.9579416514113495e+00  6.0462966234327711e+00  1.0910268395942921e+02  2.4855468750000000e+03  0.0000000000000000e+00  6.2500000000000000e-02  1.2500000000000000e-01  1.8750000000000000e-01  2.5000000000000000e-01  3.1250000000000000e-01  3.7500000000000000e-01  4.3750000000000000e-01  5.0000000000000000e-01  5.6250000000000000e-01  6.2500000000000000e-01  6.8750000000000000e-01  7.5000000000000000e-01  8.1250000000000000e-01  8.7500000000000000e-01  9.3750000000000000e-01  1.0000000000000000e+00  1.0625000000000000e+00  1.1250000000000000e+00  1.1875000000000000e+00  1.2500000000000000e+00  1.3125000000000020e+00  1.3750000000001892e+00  1.4375000000154079e+00  1.5000000010413166e+00  1.5625000592534597e+00  1.6250028773754683e+00  1.6876206783255676e+00  1.7544181714567004e+00  1.9550539960472935e+00  5.9634742284169047e+00  1.0697478374956179e+02  2.4362304687500000e+03  0.0000000000000000e+00  6.2500000000000000e-02  1.2500000000000000e-01  1.8750000000000000e-01  2.5000000000000000e-01  3.1250000000000000e-01  3.7500000000000000e-01  4.3750000000000000e-01  5.0000000000000000e-01  5.6250000000000000e-01  6.2500000000000000e-01  6.8750000000000000e-01  7.5000000000000000e-01  8.1250000000000000e-01  8.7500000000000000e-01  9.3750000000000000e-01  1.0000000000000000e+00  1.0625000000000000e+00  1.1250000000000000e+00  1.1875000000000000e+00  1.2500000000000000e+00  1.3125000000000018e+00  1.3750000000001839e+00  1.4375000000149711e+00  1.5000000010117920e+00  1.5625000575733701e+00  1.6250027957861972e+00  1.6876172562920795e+00  1.7542928813709815e+00  1.9510112785376150e+00  5.8475228753946924e+00  1.0399572345574742e+02  2.3671875000000000e+03  0.0000000000000000e+00  6.2500000000000000e-02  1.2500000000000000e-01  1.8750000000000000e-01  2.5000000000000000e-01  3.1250000000000000e-01  3.7500000000000000e-01  4.3750000000000000e-01  5.0000000000000000e-01  5.6250000000000000e-01  6.2500000000000000e-01  6.8750000000000000e-01  7.5000000000000000e-01  8.1250000000000000e-01  8.7500000000000000e-01  9.3750000000000000e-01  1.0000000000000000e+00  1.0625000000000000e+00  1.1250000000000000e+00  1.1875000000000000e+00  1.2500000000000000e+00  1.3125000000000018e+00  1.3750000000001770e+00  1.4375000000144094e+00  1.5000000009738317e+00  1.5625000554132547e+00  1.6250026908857060e+00  1.6876128565347379e+00  1.7541317941179142e+00  1.9458134988823139e+00  5.6984425643661316e+00  1.0016550307798607e+02  2.2784179687500000e+03  0.0000000000000000e+00  6.2500000000000000e-02  1.2500000000000000e-01  1.8750000000000000e-01  2.5000000000000000e-01  3.1250000000000000e-01  3.7500000000000000e-01  4.3750000000000000e-01  5.0000000000000000e-01  5.6250000000000000e-01  6.2500000000000000e-01  6.8750000000000000e-01  7.5000000000000000e-01  8.1250000000000000e-01  8.7500000000000000e-01  9.3750000000000000e-01  1.0000000000000000e+00  1.0625000000000000e+00  1.1250000000000000e+00  1.1875000000000000e+00  1.2500000000000000e+00  1.3125000000000018e+00  1.3750000000001685e+00  1.4375000000137230e+00  1.5000000009274359e+00  1.5625000527731139e+00  1.6250025626739946e+00  1.6876074790535425e+00  1.7539349096974988e+00  1.9394606570813906e+00  5.5162332953312259e+00  9.5484122616277759e+01  2.1699218750000000e+03  0.0000000000000000e+00  6.2500000000000000e-02  1.2500000000000000e-01  1.8750000000000000e-01  2.5000000000000000e-01  3.1250000000000000e-01  3.7500000000000000e-01  4.3750000000000000e-01  5.0000000000000000e-01  5.6250000000000000e-01  6.2500000000000000e-01  6.8750000000000000e-01  7.5000000000000000e-01  8.1250000000000000e-01  8.7500000000000000e-01  9.3750000000000000e-01  1.0000000000000000e+00  1.0625000000000000e+00  1.1250000000000000e+00  1.1875000000000000e+00  1.2500000000000000e+00  1.3125000000000016e+00  1.3750000000001585e+00  1.4375000000129117e+00  1.5000000008726044e+00  1.5625000496529473e+00  1.6250024111510626e+00  1.6876011238484934e+00  1.7537022281097350e+00  1.9319527531348450e+00  5.3008950682899725e+00  8.9951582070622493e+01  2.0416992187500000e+03  0.0000000000000000e+00  6.2500000000000000e-02  1.2500000000000000e-01  1.8750000000000000e-01  2.5000000000000000e-01  3.1250000000000000e-01  3.7500000000000000e-01  4.3750000000000000e-01  5.0000000000000000e-01  5.6250000000000000e-01  6.2500000000000000e-01  6.8750000000000000e-01  7.5000000000000000e-01  8.1250000000000000e-01  8.7500000000000000e-01  9.3750000000000000e-01  1.0000000000000000e+00  1.0625000000000000e+00  1.1250000000000000e+00  1.1875000000000000e+00  1.2500000000000000e+00  1.3125000000000016e+00  1.3750000000001470e+00  1.4375000000119755e+00  1.5000000008093375e+00  1.5625000460527552e+00  1.6250022363169105e+00  1.6875937909195906e+00  1.7534337493546228e+00  1.9232897870426768e+00  5.0524278832423732e+00  8.3567881441020262e+01  1.8937500000000000e+03  0.0000000000000000e+00  6.2500000000000000e-02  1.2500000000000000e-01  1.8750000000000000e-01  2.50000000000000