<?xml version="1.0"?>
<VTKFile type="UnstructuredGrid"  version="0.1"  >
<UnstructuredGrid>
<Piece  NumberOfPoints="4225" NumberOfCells="8192">
<Points>
<DataArray  type="Float64"  NumberOfComponents="3"  format="ascii">0 0 0  0.03125 0 0  0.0625 0 0  0.09375 0 0  0.125 0 0  0.15625 0 0  0.1875 0 0  0.21875 0 0  0.25 0 0  0.28125 0 0  0.3125 0 0  0.34375 0 0  0.375 0 0  0.40625 0 0  0.4375 0 0  0.46875 0 0  0.5 0 0  0.53125 0 0  0.5625 0 0  0.59375 0 0  0.625 0 0  0.65625 0 0  0.6875 0 0  0.71875 0 0  0.75 0 0  0.78125 0 0  0.8125 0 0  0.84375 0 0  0.875 0 0  0.90625 0 0  0.9375 0 0  0.96875 0 0  1 0 0  0 0.03125 0  0.03125 0.03125 0  0.0625 0.03125 0  0.09375 0.03125 0  0.125 0.03125 0  0.15625 0.03125 0  0.1875 0.03125 0  0.21875 0.03125 0  0.25 0.03125 0  0.28125 0.03125 0  0.3125 0.03125 0  0.34375 0.03125 0  0.375 0.03125 0  0.40625 0.03125 0  0.4375 0.03125 0  0.46875 0.03125 0  0.5 0.03125 0  0.53125 0.03125 0  0.5625 0.03125 0  0.59375 0.03125 0  0.625 0.03125 0  0.65625 0.03125 0  0.6875 0.03125 0  0.71875 0.03125 0  0.75 0.03125 0  0.78125 0.03125 0  0.8125 0.03125 0  0.84375 0.03125 0  0.875 0.03125 0  0.90625 0.03125 0  0.9375 0.03125 0  0.96875 0.03125 0  1 0.03125 0  0 0.0625 0  0.03125 0.0625 0  0.0625 0.0625 0  0.09375 0.0625 0  0.125 0.0625 0  0.15625 0.0625 0  0.1875 0.0625 0  0.21875 0.0625 0  0.25 0.0625 0  0.28125 0.0625 0  0.3125 0.0625 0  0.34375 0.0625 0  0.375 0.0625 0  0.40625 0.0625 0  0.4375 0.0625 0  0.46875 0.0625 0  0.5 0.0625 0  0.53125 0.0625 0  0.5625 0.0625 0  0.59375 0.0625 0  0.625 0.0625 0  0.65625 0.0625 0  0.6875 0.0625 0  0.71875 0.0625 0  0.75 0.0625 0  0.78125 0.0625 0  0.8125 0.0625 0  0.84375 0.0625 0  0.875 0.0625 0  0.90625 0.0625 0  0.9375 0.0625 0  0.96875 0.0625 0  1 0.0625 0  0 0.09375 0  0.03125 0.09375 0  0.0625 0.09375 0  0.09375 0.09375 0  0.125 0.09375 0  0.15625 0.09375 0  0.1875 0.09375 0  0.21875 0.09375 0  0.25 0.09375 0  0.28125 0.09375 0  0.3125 0.09375 0  0.34375 0.09375 0  0.375 0.09375 0  0.40625 0.09375 0  0.4375 0.09375 0  0.46875 0.09375 0  0.5 0.09375 0  0.53125 0.09375 0  0.5625 0.09375 0  0.59375 0.09375 0  0.625 0.09375 0  0.65625 0.09375 0  0.6875 0.09375 0  0.71875 0.09375 0  0.75 0.09375 0  0.78125 0.09375 0  0.8125 0.09375 0  0.84375 0.09375 0  0.875 0.09375 0  0.90625 0.09375 0  0.9375 0.09375 0  0.96875 0.09375 0  1 0.09375 0  0 0.125 0  0.03125 0.125 0  0.0625 0.125 0  0.09375 0.125 0  0.125 0.125 0  0.15625 0.125 0  0.1875 0.125 0  0.21875 0.125 0  0.25 0.125 0  0.28125 0.125 0  0.3125 0.125 0  0.34375 0.125 0  0.375 0.125 0  0.40625 0.125 0  0.4375 0.125 0  0.46875 0.125 0  0.5 0.125 0  0.53125 0.125 0  0.5625 0.125 0  0.59375 0.125 0  0.625 0.125 0  0.65625 0.125 0  0.6875 0.125 0  0.71875 0.125 0  0.75 0.125 0  0.78125 0.125 0  0.8125 0.125 0  0.84375 0.125 0  0.875 0.125 0  0.90625 0.125 0  0.9375 0.125 0  0.96875 0.125 0  1 0.125 0  0 0.15625 0  0.03125 0.15625 0  0.0625 0.15625 0  0.09375 0.15625 0  0.125 0.15625 0  0.15625 0.15625 0  0.1875 0.15625 0  0.21875 0.15625 0  0.25 0.15625 0  0.28125 0.15625 0  0.3125 0.15625 0  0.34375 0.15625 0  0.375 0.15625 0  0.40625 0.15625 0  0.4375 0.15625 0  0.46875 0.15625 0  0.5 0.15625 0  0.53125 0.15625 0  0.5625 0.15625 0  0.59375 0.15625 0  0.625 0.15625 0  0.65625 0.15625 0  0.6875 0.15625 0  0.71875 0.15625 0  0.75 0.15625 0  0.78125 0.15625 0  0.8125 0.15625 0  0.84375 0.15625 0  0.875 0.15625 0  0.90625 0.15625 0  0.9375 0.15625 0  0.96875 0.15625 0  1 0.15625 0  0 0.1875 0  0.03125 0.1875 0  0.0625 0.1875 0  0.09375 0.1875 0  0.125 0.1875 0  0.15625 0.1875 0  0.1875 0.1875 0  0.21875 0.1875 0  0.25 0.1875 0  0.28125 0.1875 0  0.3125 0.1875 0  0.34375 0.1875 0  0.375 0.1875 0  0.40625 0.1875 0  0.4375 0.1875 0  0.46875 0.1875 0  0.5 0.1875 0  0.53125 0.1875 0  0.5625 0.1875 0  0.59375 0.1875 0  0.625 0.1875 0  0.65625 0.1875 0  0.6875 0.1875 0  0.71875 0.1875 0  0.75 0.1875 0  0.78125 0.1875 0  0.8125 0.1875 0  0.84375 0.1875 0  0.875 0.1875 0  0.90625 0.1875 0  0.9375 0.1875 0  0.96875 0.1875 0  1 0.1875 0  0 0.21875 0  0.03125 0.21875 0  0.0625 0.21875 0  0.09375 0.21875 0  0.125 0.21875 0  0.15625 0.21875 0  0.1875 0.21875 0  0.21875 0.21875 0  0.25 0.21875 0  0.28125 0.21875 0  0.3125 0.21875 0  0.34375 0.21875 0  0.375 0.21875 0  0.40625 0.21875 0  0.4375 0.21875 0  0.46875 0.21875 0  0.5 0.21875 0  0.53125 0.21875 0  0.5625 0.21875 0  0.59375 0.21875 0  0.625 0.21875 0  0.65625 0.21875 0  0.6875 0.21875 0  0.71875 0.21875 0  0.75 0.21875 0  0.78125 0.21875 0  0.8125 0.21875 0  0.84375 0.21875 0  0.875 0.21875 0  0.90625 0.21875 0  0.9375 0.21875 0  0.96875 0.21875 0  1 0.21875 0  0 0.25 0  0.03125 0.25 0  0.0625 0.25 0  0.09375 0.25 0  0.125 0.25 0  0.15625 0.25 0  0.1875 0.25 0  0.21875 0.25 0  0.25 0.25 0  0.28125 0.25 0  0.3125 0.25 0  0.34375 0.25 0  0.375 0.25 0  0.40625 0.25 0  0.4375 0.25 0  0.46875 0.25 0  0.5 0.25 0  0.53125 0.25 0  0.5625 0.25 0  0.59375 0.25 0  0.625 0.25 0  0.65625 0.25 0  0.6875 0.25 0  0.71875 0.25 0  0.75 0.25 0  0.78125 0.25 0  0.8125 0.25 0  0.84375 0.25 0  0.875 0.25 0  0.90625 0.25 0  0.9375 0.25 0  0.96875 0.25 0  1 0.25 0  0 0.28125 0  0.03125 0.28125 0  0.0625 0.28125 0  0.09375 0.28125 0  0.125 0.28125 0  0.15625 0.28125 0  0.1875 0.28125 0  0.21875 0.28125 0  0.25 0.28125 0  0.28125 0.28125 0  0.3125 0.28125 0  0.34375 0.28125 0  0.375 0.28125 0  0.40625 0.28125 0  0.4375 0.28125 0  0.46875 0.28125 0  0.5 0.28125 0  0.53125 0.28125 0  0.5625 0.28125 0  0.59375 0.28125 0  0.625 0.28125 0  0.65625 0.28125 0  0.6875 0.28125 0  0.71875 0.28125 0  0.75 0.28125 0  0.78125 0.28125 0  0.8125 0.28125 0  0.84375 0.28125 0  0.875 0.28125 0  0.90625 0.28125 0  0.9375 0.28125 0  0.96875 0.28125 0  1 0.28125 0  0 0.3125 0  0.03125 0.3125 0  0.0625 0.3125 0  0.09375 0.3125 0  0.125 0.3125 0  0.15625 0.3125 0  0.1875 0.3125 0  0.21875 0.3125 0  0.25 0.3125 0  0.28125 0.3125 0  0.3125 0.3125 0  0.34375 0.3125 0  0.375 0.3125 0  0.40625 0.3125 0  0.4375 0.3125 0  0.46875 0.3125 0  0.5 0.3125 0  0.53125 0.3125 0  0.5625 0.3125 0  0.59375 0.3125 0  0.625 0.3125 0  0.65625 0.3125 0  0.6875 0.3125 0  0.71875 0.3125 0  0.75 0.3125 0  0.78125 0.3125 0  0.8125 0.3125 0  0.84375 0.3125 0  0.875 0.3125 0  0.90625 0.3125 0  0.9375 0.3125 0  0.96875 0.3125 0  1 0.3125 0  0 0.34375 0  0.03125 0.34375 0  0.0625 0.34375 0  0.09375 0.34375 0  0.125 0.34375 0  0.15625 0.34375 0  0.1875 0.34375 0  0.21875 0.34375 0  0.25 0.34375 0  0.28125 0.34375 0  0.3125 0.34375 0  0.34375 0.34375 0  0.375 0.34375 0  0.40625 0.34375 0  0.4375 0.34375 0  0.46875 0.34375 0  0.5 0.34375 0  0.53125 0.34375 0  0.5625 0.34375 0  0.59375 0.34375 0  0.625 0.34375 0  0.65625 0.34375 0  0.6875 0.34375 0  0.71875 0.34375 0  0.75 0.34375 0  0.78125 0.34375 0  0.8125 0.34375 0  0.84375 0.34375 0  0.875 0.34375 0  0.90625 0.34375 0  0.9375 0.34375 0  0.96875 0.34375 0  1 0.34375 0  0 0.375 0  0.03125 0.375 0  0.0625 0.375 0  0.09375 0.375 0  0.125 0.375 0  0.15625 0.375 0  0.1875 0.375 0  0.21875 0.375 0  0.25 0.375 0  0.28125 0.375 0  0.3125 0.375 0  0.34375 0.375 0  0.375 0.375 0  0.40625 0.375 0  0.4375 0.375 0  0.46875 0.375 0  0.5 0.375 0  0.53125 0.375 0  0.5625 0.375 0  0.59375 0.375 0  0.625 0.375 0  0.65625 0.375 0  0.6875 0.375 0  0.71875 0.375 0  0.75 0.375 0  0.78125 0.375 0  0.8125 0.375 0  0.84375 0.375 0  0.875 0.375 0  0.90625 0.375 0  0.9375 0.375 0  0.96875 0.375 0  1 0.375 0  0 0.40625 0  0.03125 0.40625 0  0.0625 0.40625 0  0.09375 0.40625 0  0.125 0.40625 0  0.15625 0.40625 0  0.1875 0.40625 0  0.21875 0.40625 0  0.25 0.40625 0  0.28125 0.40625 0  0.3125 0.40625 0  0.34375 0.40625 0  0.375 0.40625 0  0.40625 0.40625 0  0.4375 0.40625 0  0.46875 0.40625 0  0.5 0.40625 0  0.53125 0.40625 0  0.5625 0.40625 0  0.59375 0.40625 0  0.625 0.40625 0  0.65625 0.40625 0  0.6875 0.40625 0  0.71875 0.40625 0  0.75 0.40625 0  0.78125 0.40625 0  0.8125 0.40625 0  0.84375 0.40625 0  0.875 0.40625 0  0.90625 0.40625 0  0.9375 0.40625 0  0.96875 0.40625 0  1 0.40625 0  0 0.4375 0  0.03125 0.4375 0  0.0625 0.4375 0  0.09375 0.4375 0  0.125 0.4375 0  0.15625 0.4375 0  0.1875 0.4375 0  0.21875 0.4375 0  0.25 0.4375 0  0.28125 0.4375 0  0.3125 0.4375 0  0.34375 0.4375 0  0.375 0.4375 0  0.40625 0.4375 0  0.4375 0.4375 0  0.46875 0.4375 0  0.5 0.4375 0  0.53125 0.4375 0  0.5625 0.4375 0  0.59375 0.4375 0  0.625 0.4375 0  0.65625 0.4375 0  0.6875 0.4375 0  0.71875 0.4375 0  0.75 0.4375 0  0.78125 0.4375 0  0.8125 0.4375 0  0.84375 0.4375 0  0.875 0.4375 0  0.90625 0.4375 0  0.9375 0.4375 0  0.96875 0.4375 0  1 0.4375 0  0 0.46875 0  0.03125 0.46875 0  0.0625 0.46875 0  0.09375 0.46875 0  0.125 0.46875 0  0.15625 0.46875 0  0.1875 0.46875 0  0.21875 0.46875 0  0.25 0.46875 0  0.28125 0.46875 0  0.3125 0.46875 0  0.34375 0.46875 0  0.375 0.46875 0  0.40625 0.46875 0  0.4375 0.46875 0  0.46875 0.46875 0  0.5 0.46875 0  0.53125 0.46875 0  0.5625 0.46875 0  0.59375 0.46875 0  0.625 0.46875 0  0.65625 0.46875 0  0.6875 0.46875 0  0.71875 0.46875 0  0.75 0.46875 0  0.78125 0.46875 0  0.8125 0.46875 0  0.84375 0.46875 0  0.875 0.46875 0  0.90625 0.46875 0  0.9375 0.46875 0  0.96875 0.46875 0  1 0.46875 0  0 0.5 0  0.03125 0.5 0  0.0625 0.5 0  0.09375 0.5 0  0.125 0.5 0  0.15625 0.5 0  0.1875 0.5 0  0.21875 0.5 0  0.25 0.5 0  0.28125 0.5 0  0.3125 0.5 0  0.34375 0.5 0  0.375 0.5 0  0.40625 0.5 0  0.4375 0.5 0  0.46875 0.5 0  0.5 0.5 0  0.53125 0.5 0  0.5625 0.5 0  0.59375 0.5 0  0.625 0.5 0  0.65625 0.5 0  0.6875 0.5 0  0.71875 0.5 0  0.75 0.5 0  0.78125 0.5 0  0.8125 0.5 0  0.84375 0.5 0  0.875 0.5 0  0.90625 0.5 0  0.9375 0.5 0  0.96875 0.5 0  1 0.5 0  0 0.53125 0  0.03125 0.53125 0  0.0625 0.53125 0  0.09375 0.53125 0  0.125 0.53125 0  0.15625 0.53125 0  0.1875 0.53125 0  0.21875 0.53125 0  0.25 0.53125 0  0.28125 0.53125 0  0.3125 0.53125 0  0.34375 0.53125 0  0.375 0.53125 0  0.40625 0.53125 0  0.4375 0.53125 0  0.46875 0.53125 0  0.5 0.53125 0  0.53125 0.53125 0  0.5625 0.53125 0  0.59375 0.53125 0  0.625 0.53125 0  0.65625 0.53125 0  0.6875 0.53125 0  0.71875 0.53125 0  0.75 0.53125 0  0.78125 0.531
[...]
<CellData  Scalars="error indicators"> 
<DataArray  type="Float64"  Name="error indicators"  format="ascii">6.6213497687413767e-05   6.5602894545109089e-05   6.6267269889693230e-05   6.4519065885379533e-05   6.4381275148403064e-05   6.5653710396512289e-05   6.4435709536926028e-05   6.4569401468358379e-05   6.7419106984839593e-05   6.5865955654541999e-05   6.7476691830268003e-05   6.4945167707621738e-05   6.4822087995611107e-05   6.5919382017350713e-05   6.4880516458725669e-05   6.4996481402706136e-05   6.9234170170269120e-05   6.6704876780219571e-05   6.9297831726937550e-05   6.5946651405715645e-05   6.5847734376620640e-05   6.6769773778634019e-05   6.5909701370181844e-05   6.6004968846347035e-05   7.1679224999390365e-05   6.8119823095038934e-05   7.1751289044623032e-05   6.7528277625357621e-05   6.7468239781739601e-05   6.8205188944291367e-05   6.7533302890136683e-05   6.7599563189801179e-05   7.4782869552308322e-05   7.0117035957434533e-05   7.4865788675716513e-05   6.9701064655684766e-05   6.9699041195956475e-05   7.0232181690561713e-05   6.9766768065609969e-05   6.9791315343416686e-05   7.8585210839313612e-05   7.2711174372144533e-05   7.8681661587294945e-05   7.2484742540542460e-05   7.2563053193858352e-05   7.2865977794093063e-05   7.2633016152751548e-05   7.2600114911481361e-05   8.3142962582846897e-05   7.5928746714403142e-05   8.3255992649957364e-05   7.5911358414611831e-05   7.6093717048209469e-05   7.6134020839570602e-05   7.6165482162861341e-05   7.6058335652153718e-05   8.8537251559626275e-05   7.9813200403596241e-05   8.8670510467473877e-05   8.0030641906360102e-05   8.0339397985858629e-05   8.0081227989963830e-05   8.0412504466323697e-05   8.0216242688390914e-05   9.4886315862818173e-05   8.4432871035624427e-05   9.5044436343468078e-05   8.4918410840666137e-05   8.5369912629900514e-05   8.4778191713915028e-05   8.5443835688685639e-05   8.5150428317767060e-05   1.0236770912603032e-04   8.9894262458675185e-05   1.0255698369441782e-04   9.0690655520492340e-05   9.1286736711810703e-05   9.0334860517863284e-05   9.1360819659713860e-05   9.0977864794961858e-05   1.1126048597331614e-04   9.6365919596765222e-05   1.1149017733169785e-04   9.7528953417796052e-05   9.8239910565184389e-05   9.6925043472674107e-05   9.8313233467775961e-05   9.7881028430066508e-05   1.2203400623173100e-04   1.0412498717358468e-04   1.2231918793325901e-04   1.0573034062161672e-04   1.0645758915131798e-04   1.0483380570006955e-04   1.0652869168470190e-04   1.0615639225190810e-04   1.3556273301625434e-04   1.1365739883959350e-04   1.3593146890316857e-04   1.1581583323207516e-04   1.1630000667823328e-04   1.1455750106720519e-04   1.1636623133655072e-04   1.1631653855477920e-04   1.5375863600304820e-04   1.2590215042167376e-04   1.5427445824055971e-04   1.2880089993245930e-04   1.2835871618203167e-04   1.2703622415856798e-04   1.2841439196520444e-04   1.2932675400004900e-04   1.8197239592412673e-04   1.4295051318507376e-04   1.8282562712490172e-04   1.4700459768038221e-04   1.4360653681143605e-04   1.4424129788381557e-04   1.4363679533628125e-04   1.4720003659513664e-04   2.4010848251163741e-04   1.7056500329423570e-04   2.4204568754622368e-04   1.7715573259575516e-04   1.6316706183440381e-04   1.7081170724522453e-04   1.6311951724297789e-04   1.7463491610143105e-04   2.2388688500351258e-04   1.1876077255901285e-04   2.2738877002363917e-04   1.2760135867345289e-04   2.0331488676586417e-04   1.1262518778818355e-04   2.0332330045937327e-04   1.1532235297805690e-04   2.0051284008520653e-04   6.7844086113598128e-05   2.0496672953982550e-04   8.0226178999313284e-05   1.9051546779791706e-04   7.3781068210955388e-05   1.9026734311315241e-04   7.3345457033021491e-05   1.8403513477356482e-04   2.6690937383860150e-05   1.8925841895442032e-04   2.9419405620526544e-05   1.7432061376169809e-04   2.8606799102255128e-05   1.7390636349907355e-04   1.7352153403018298e-05   1.7024223561039627e-04   6.6512913705769861e-05   1.7621294290791223e-04   5.5482920903518571e-05   1.6010168876428126e-04   5.0490062668646300e-05   1.5953729677850554e-04   5.8784232686248665e-05   1.5742125652680214e-04   8.5723915916350433e-05   1.6418740567436380e-04   7.8974812929678644e-05   1.4727943454297891e-04   7.2412671070825683e-05   1.4656144101002499e-04   8.0765066059056761e-05   1.4451642507635031e-04   9.9240334212772764e-05   1.5218893508700982e-04   9.4799928209209281e-05   1.3494615181635982e-04   8.6984063256202691e-05   1.3405943754099013e-04   9.6041897270487847e-05   1.3056456916298598e-04   1.1013507305638375e-04   1.3934916450840357e-04   1.0744928407092556e-04   1.2225335275948822e-04   9.8501542393899933e-05   1.2116858167416108e-04   1.0843390034232134e-04   1.1432048454401193e-04   1.1972670133751618e-04   1.2461494445542229e-04   1.1860169145786175e-04   1.0823318312403153e-04   1.0857416134345606e-04   1.0689472743334251e-04   1.1946715497486280e-04   9.3571647126572966e-05   1.2877119712202987e-04   1.0628631741766268e-04   1.2916419840175271e-04   9.1415765819415388e-05   1.1807612439124504e-04   8.9702835749465879e-05   1.2999584282566014e-04   6.2277195221939214e-05   1.3780891960977749e-04   8.0567952535730687e-05   1.3976531237975637e-04   6.8638148627866974e-05   1.2761560622916461e-04   6.6184641188829450e-05   1.4062697634935009e-04   4.3243395355952423e-05   1.4731852780708972e-04   2.8275606545455148e-05   1.5095400705532027e-04   2.4239417878641479e-05   1.3772383236098086e-04   1.5441037602545230e-05   1.5189984497365262e-04   9.4674041882665639e-05   1.5782678124736846e-04   7.9144512263009084e-05   1.6332813788840926e-04   6.5316398870679524e-05   1.4898084219824888e-04   6.8052531475541817e-05   1.6440367264769913e-04   1.3489753645292863e-04   1.6999261695138410e-04   1.2478536475108879e-04   1.7738316604349198e-04   1.0107274388091021e-04   1.6211182441236028e-04   1.0300887489224211e-04   1.7861123282796168e-04   1.7082065135235966e-04   1.8291346610553832e-04   1.6798317241126522e-04   1.8210908779151141e-04   1.3217844603793182e-04   1.7634754232306640e-04   1.3583312492357092e-04   1.8381931461141201e-04   2.0686102601227447e-04   1.1918876692570271e-04   8.4520572645995439e-05   3.6694961559598991e-04   1.0498430163655880e-04   1.1403440279637668e-04   1.6258418876010668e-04   3.5788725727565628e-04   2.0181418661068640e-03   8.9613365758797249e-04   1.8695349378269519e-03   2.5246191419587014e-03   7.7031446980457103e-04   9.1589959670859830e-04   5.9607174028679366e-04   2.4870814066559645e-03   6.3700225918192021e-05   6.2955305489000696e-05   6.3759093219420312e-05   6.1793593874614913e-05   6.1412102847185576e-05   6.3002497812561848e-05   6.1469459952851851e-05   6.1837520586666126e-05   6.4752291023503140e-05   6.3347592805636111e-05   6.4818765099991000e-05   6.2185064571273311e-05   6.1870973975744703e-05   6.3382608081018207e-05   6.1938880533192166e-05   6.2217656909670937e-05   6.6401868327094693e-05   6.4310534500464233e-05   6.6476676635579033e-05   6.3137987379014286e-05   6.2895144034116069e-05   6.4339276848979853e-05   6.2974045095634052e-05   6.3164801062150214e-05   6.8665051532664672e-05   6.5847773541109037e-05   6.8748993991584611e-05   6.4656021437655144e-05   6.4494168469275690e-05   6.5875514798189891e-05   6.4584584286236137e-05   6.4681951385783820e-05   7.1565563593211336e-05   6.7968700646697097e-05   7.1659550143513670e-05   6.6748527815705007e-05   6.6682153075773448e-05   6.8000044566001984e-05   6.6784712509074205e-05   6.6777759682451983e-05   7.5137885405094276e-05   7.0690649054222575e-05   7.5242989457583530e-05   6.9432756001704254e-05   6.9479432270985666e-05   7.0729438469279853e-05   6.9594922690034388e-05   6.9468652437071823e-05   7.9431757395122916e-05   7.4041992974817962e-05   7.9549292292209730e-05   7.2736933864093860e-05   7.2914900831446506e-05   7.4091098670274079e-05   7.3044338884376480e-05   7.2781787567213397e-05   8.4518843445076768e-05   7.8066527282839781e-05   8.4650476334536889e-05   7.6704646254343296e-05   7.7029098676777413e-05   7.8127385755008265e-05   7.7173832073586045e-05   7.6759154937832897e-05   9.0503111628688874e-05   8.2829900370241514e-05   9.0651043150768152e-05   8.1401290329909909e-05   8.1878286085946888e-05   8.2901515728845234e-05   8.2040147078245708e-05   8.1463444980482734e-05   9.7537905677954871e-05   8.8429515913180520e-05   9.7705172517418239e-05   8.6924062536604594e-05   8.7539877446743861e-05   8.8506281546612829e-05   8.7721428360572012e-05   8.6986753452252829e-05   1.0585535294125308e-04   9.5010314198066206e-05   1.0604637387871822e-04   9.3417993341477951e-05   9.4119515019454206e-05   9.5077078807649003e-05   9.4324465032722128e-05   9.3463640254050145e-05   1.1581829606904878e-04   1.0278996531473236e-04   1.1603993607517913e-04   1.0110186919324328e-04   1.0175896026128581e-04   1.0281015418036219e-04   1.0199291322187820e-04   1.0108959021731192e-04   1.2800713680191349e-04   1.1209540771663272e-04   1.2827096800573098e-04   1.1030692981512999e-04   1.1063881481868684e-04   1.1198021167718828e-04   1.1091067658564665e-04   1.1013946769669783e-04   1.4329515950375712e-04   1.2338879480434923e-04   1.4362270620960755e-04   1.2150938824792105e-04   1.2094931627432584e-04   1.2291338139795466e-04   1.2127400643651879e-04   1.2094365204589731e-04   1.6206724550488669e-04   1.3709394941587651e-04   1.6250256987900851e-04   1.3517364275129212e-04   1.3272086854151162e-04   1.3572047703143660e-04   1.3312439736272636e-04   1.3363250257721209e-04   1.6935688716117477e-04   1.5201307130403198e-04   1.6999096185682617e-04   1.5010563057337139e-04   1.4499100104366182e-04   1.5015755948649654e-04   1.4552391144798024e-04   1.4801124623444476e-04   1.8263249902108970e-04   6.4628398220053401e-05   1.8286574495443071e-04   6.4907814802812752e-05   1.7432891658334665e-04   5.6484671100779389e-05   1.7442101685642279e-04   5.6381422767215842e-05   1.6737971293169716e-04   4.8428767429146935e-05   1.6781835326845960e-04   5.0645331341605663e-05   1.6342311313395538e-04   3.4068258122824696e-05   1.6363091031157970e-04   3.6176240524048324e-05   1.5358923056871303e-04   2.7919400178767377e-05   1.5414512090348355e-04   1.9506176335938689e-05   1.5563587072249131e-04   4.0634371232999071e-05   1.5593060821690599e-04   3.6394532910748425e-05   1.4083034728377053e-04   6.0381443480478804e-05   1.4147458938798326e-04   5.5667213295655532e-05   1.4580204062933770e-04   6.5757662413387747e-05   1.4615176836289408e-04   6.2054858031681620e-05   1.2827803154272178e-04   7.8740743566799084e-05   1.2900331047254040e-04   7.4347305937557675e-05   1.3527383357900204e-04   8.2253459723818177e-05   1.3566249849889024e-04   7.8542961215222537e-05   1.1506720549379395e-04   9.2486348559818509e-05   1.1587998786631394e-04   8.8146926145861980e-05   1.2419072261383524e-04   9.5135692960900511e-05   1.2461051250364170e-04   9.1352117140717389e-05   1.0009349273832827e-04   1.0404195789001247e-04   1.0101854808388738e-04   9.9688757532634804e-05   1.1212581305493764e-04   1.0620133508333687e-04   1.1257432237282602e-04   1.0233377708992622e-04   8.1458436213502336e-05   1.1455839405713205e-04   8.2566206548391070e-05   1.1017008695329887e-04   9.8229370166376498e-05   1.1640448408403453e-04   9.8710456078516772e-05   1.1245351246634387e-04   5.4113473167502814e-05   1.2474647446890082e-04   5.5700915689293757e-05   1.2031768747728545e-04   8.0878570693240583e-05   1.2637071021977413e-04   8.1410413561979158e-05   1.2233949360847837e-04   3.6028740444433572e-05   1.3514508948938645e-04   3.3690483361578367e-05   1.3067832346407813e-04   5.5851636610982643e-05   1.3658871807970411e-04   5.6519889069108453e-05   1.3248112674396457e-04   7.9413993236808426e-05   1.4625185696766769e-04   7.8489072440556687e-05   1.4175729786729594e-04   2.7832353450619251e-05   1.4750998492271488e-04   2.6727735916952536e-05   1.4333172529820950e-04   1.1175585103174485e-04   1.5862361683127485e-04   1.1122965832580898e-04   1.5412001098167073e-04   7.3106238800379659e-05   1.5962100605661282e-04   7.2834060209222849e-05   1.5537724610938274e-04   1.4299537225222585e-04   1.7297554268090151e-04   1.4306041010957998e-04   1.6818373938417300e-04   1.0419621885327733e-04   1.7347889093330401e-04   1.0425430249141059e-04   1.6884131688710583e-04   1.7205421332277781e-04   1.8920645172596133e-04   1.7910613615141623e-04   1.7008040565161115e-04   1.3126528017248689e-04   1.8854239492103691e-04   1.3389049533411726e-04   1.6992279652185992e-04   1.2373250408619400e-04   1.5535403965776239e-04   1.7944969977432134e-04   4.2749740601972277e-04   8.2630010678693376e-05   1.6142570126259192e-04   1.3945751484687035e-04   4.0044688165866865e-04   1.2251764219866411e-03   8.4159755191164770e-04   9.1820240001367118e-04   2.7854622676011052e-03   8.0778795019069872e-04   6.7342106386170011e-04   8.0641518628898575e-04   2.6145322551935622e-03   6.0685431410285051e-05   5.9698239075698898e-05   6.0749606785302130e-05   5.8518294275914161e-05   5.7891742958969119e-05   5.9741495597180017e-05   5.7951784851116919e-05   5.8554803400788457e-05   6.1700668957919680e-05   6.0071024453289526e-05   6.1778124313061910e-05   5.8890679453138487e-05   5.8339679434671297e-05   6.0088401076604462e-05   5.8416660579488758e-05   5.8902109497357653e-05   6.3292940799413312e-05   6.0990611495197825e-05   6.3384096405815000e-05   5.9800922163933332e-05   5.9323364494404509e-05   6.0986806762722290e-05   5.9417771377239784e-05   5.9791868094477125e-05   6.5475895304048786e-05   6.2459564213026444e-05   6.5581278778990379e-05   6.1251550971788051e-05   6.0850699890877738e-05   6.2438035341402481e-05   6.0963122189997716e-05   6.1225331465562243e-05   6.8269440948397973e-05   6.4485006422970083e-05   6.8389736152718047e-05   6.3249651066262199e-05   6.2932882392563775e-05   6.4447790358736562e-05   6.3064061812429745e-05   6.3208118333623603e-05   7.1702069869293211e-05   6.7080247304393003e-05   7.1838183013007336e-05   6.5808503128502203e-05   6.5585536899778139e-05   6.7027641281223606e-05   6.5736438265382436e-05   6.5751705190485312e-05   7.5813883157953914e-05   7.0266848867589604e-05   7.5967032084273768e-05   6.8949675331081970e-05   6.8830083570614042e-05   7.0196836834620442e-05   6.9001991740923825e-05   6.8875250719680877e-05   8.0660489813843135e-05   7.4077138546546037e-05   8.0832329939629018e-05   7.2705588711281197e-05   7.2695150240239352e-05   7.3984342355246476e-05   7.2889802666280189e-05   7.2607661379427954e-05   8.6317996281304072e-05   7.8557178639195965e-05   8.6510809259651787e-05   7.7122600628766935e-05   7.7217730883101616e-05   7.8430907323668976e-05   7.7437505998489552e-05   7.6989728239311659e-05   9.2888974658875508e-05   8.3769991840620245e-05   9.3105967991156873e-05   8.2264473005636771e-05   8.2443447304559437e-05   8.3590548467298018e-05   8.2691645205008979e-05   8.2075770030228074e-05   1.0050749150515494e-04   8.9797860951849439e-05   1.0075329838089893e-04   8.8215188417030901e-05   8.8424294217730290e-05   8.9529419003927613e-05   8.8705570873320050e-05   8.7932863345639931e-05   1.0933402077595964e-04   9.6739046557765371e-05   1.0961556663149204e-04   9.5076776240889989e-05   9.5209648853638803e-05   9.6315752157554734e-05   9.5530698384267479e-05   9.4631606773559290e-05   1.1950412551303917e-04   1.0468288718390326e-04   1.1983216349800633e-04   1.0294678464568359e-04   1.0281973691592163e-04   1.0398236502018928e-04   1.0319033784858405e-04   1.0221052119746336e-04   1.3089598380854159e-04   1.1361232060138074e-04   1.3128776335851228e-04   1.1182550641675426e-04   1.1117518396699442e-04   1.1241295537440225e-04   1.1160963136632483e-04   1.1056668593638287e-04   1.4206432126050541e-04   1.2309115311402626e-04   1.4254753677030431e-04   1.2130743603086720e-04   1.1992181563219177e-04   1.2108856578838686e-04   1.2044041794569715e-04   1.1921033638070690e-04   1.3780989260811635e-04   1.3135191928908838e-04   1.3843116537924199e-04   1.2955527859783718e-04   1.2789511744599764e-04   1.3007535818046712e-04   1.2853286869872631e-04   1.2822710377809638e-04   1.5734732242578408e-04   3.8827523402844313e-05   1.5743573956183388e-04   3.6239675881455048e-05   1.5386298084482092e-04   4.3597966622397179e-05   1.5390350001367759e-04   4.1462921772036545e-05   1.4972902302380194e-04   4.1075546668985662e-05   1.4994949682936394e-04   3.7377992066263345e-05   1.4269991328017410e-04   5.1040532961940320e-05   1.4282209913599211e-04   4.8389360772054938e-05   1.4023795847651851e-04   5.6585963978506144e-05   1.4054437499572698e-04   5.2754487816300927e-05   1.3855588740145346e-04   6.3385311518028052e-05   1.3876896550711772e-04   6.0170623167309206e-05   1.3001320160161835e-04   7.0740583691523694e-05   1.3038119334577518e-04   6.6786580017938851e-05   1.3212687006717579e-04   7.5502054438553881e-05   1.3240462890555505e-04   7.1930607625312598e-05   1.1911547536149466e-04   8.2767098558086472e-05   1.1953203616837497e-04   7.8681503173968286e-05   1.2416283210878968e-04   8.6325534118048778e-05   1.2448694669010282e-04   8.2500867724283309e-05   1.0708085261386801e-04   9.3271983326978012e-05   1.0754126762686931e-04   8.9061328278923637e-05   1.1500335632168762e-04   9.6066592887395359e-05   1.1536172541788762e-04   9.2046379650110888e-05   9.2985762966801030e-05   1.0288044992260269e-04   9.3494841203748297e-05   9.8556775403514044e-05   1.0446762231168425e-04   1.0514306949610007e-04   1.0485243392606552e-04   1.0096413245512610e-04   7.4974238300051638e-05   1.1210025803012046e-04   7.5558961716649836e-05   1.0767704191973135e-04   9.1899206456116006e-05   1.1395268530544712e-04   9.2306768052866282e-05   1.0964118390928246e-04   4.7589467258063873e-05   1.2134939477623546e-04   4.8400884778027066e-05   1.1684082567041542e-04   7.5858591416550395e-05   1.2284631516756096e-04   7.6293469549503482e-05   1.1842276452813013e-04   3.9704465636446147e-05   1.3099910963784391e-04   3.8890934212974336e-05   1.2642127157808352e-04   5.2442916678137406e-05   1.3214236169272638e-04   5.2950236891622935e-05   1.2762511498618501e-04   7.8093740846510955e-05   1.4141264713082879e-04   7.7805118872037394e-05   1.3678672494893998e-04   2.6073100877670071e-05   1.4214574392743402e-04   2.5369470442927832e-05   1.3755480058048026e-04   1.0750576478441912e-04   1.5297871109716746e-04   1.0743205327625809e-04   1.4832788011311939e-04   6.8349623071677022e-05   1.5315958345910605e-04   6.8259476448611831e-05   1.4851175480639804e-04   1.3505138568926456e-04   1.6610729913481146e-04   1.3550224038822429e-04   1.6101191088973213e-04   9.6801785427773733e-05   1.6544835587793916e-04   9.7020085445926392e-05   1.6032537131070815e-04   1.5838600578880501e-04   1.7977168887205164e-04   1.6586602462168276e-04   1.5451699577845828e-04   1.2001837863108286e-04   1.7819855423446013e-04   1.2247487228807903e-04   1.5537316785312923e-04   9.9369702828467019e-05   1.1644425728919213e-04   1.6573658496927662e-04   4.9203980298899821e-04   1.0497346541298192e-05   1.5866277330828441e-04   7.4673522252502130e-05   4.3496749395428863e-04   1.0470717486880138e-03   9.0639101718498205e-04   6.9225115045606770e-04   2.9726223748927460e-03   8.3204765173547975e-04   5.1691075452007617e-04   9.7423073472360582e-04   2.7298947136955186e-03   5.7129601056411973e-05   5.5925010678957444e-05   5.7199042292316268e-05   5.4736531568663150e-05   5.3887723602526125e-05   5.5963684323966213e-05   5.3950213022128315e-05   5.4764636909932421e-05   5.8095432522066657e-05   5.6266857384504112e-05   5.8184450512906552e-05   5.5084293006223752e-05   5.4319353653351463e-05   5.6265216212959562e-05   5.4405578179829160e-05   5.5072402871943499e-05   5.9607057841268139e-05   5.7122529943468245e-05   5.9715962227926637e-05   5.5937996752879165e-05   5.5249611499886411e-05   5.7084196035933327e-05   5.5359992128514119e-05   5.5889564418709686e-05   6.1674773745867188e-05   5.8493134943917569e-05   6.1804008279958187e-05   5.729879813241109